/*--------------------------------*- C++ -*----------------------------------*\
| =========                 |                                                 |
| \\      /  F ield         | OpenFOAM: The Open Source CFD Toolbox           |
|  \\    /   O peration     | Version:  v1912                                 |
|   \\  /    A nd           | Website:  www.openfoam.com                      |
|    \\/     M anipulation  |                                                 |
\*---------------------------------------------------------------------------*/
FoamFile
{
    version     2.0;
    format      ascii;
    class       volScalarField;
    location    "183";
    object      p;
}
// * * * * * * * * * * * * * * * * * * * * * * * * * * * * * * * * * * * * * //

dimensions      [0 2 -2 0 0 0 0];


internalField   nonuniform List<scalar> 
22000
(
-4.43075419254e-05
-4.45495724472e-05
-4.47737178845e-05
-4.49500020252e-05
-4.50870027269e-05
-4.51912371525e-05
-4.5266317163e-05
-4.53131955717e-05
-4.53340898493e-05
-4.53296807435e-05
-4.53020388768e-05
-4.52515867509e-05
-4.51802478234e-05
-4.50882599116e-05
-4.49774935607e-05
-4.48480349215e-05
-4.47017527682e-05
-4.45385754008e-05
-4.43604549155e-05
-4.4167183979e-05
-4.39608013471e-05
-4.37407378851e-05
-4.35092907149e-05
-4.32657293291e-05
-4.30124109563e-05
-4.27484656859e-05
-4.24761681967e-05
-4.21945804238e-05
-4.19058179883e-05
-4.16091317419e-05
-4.49530401175e-05
-4.51010330291e-05
-4.52485520056e-05
-4.53707464023e-05
-4.54670666399e-05
-4.55388168529e-05
-4.55879303196e-05
-4.56137613137e-05
-4.56178185252e-05
-4.55995229418e-05
-4.5560694871e-05
-4.5500770657e-05
-4.5421744399e-05
-4.53229858314e-05
-4.52066830607e-05
-4.50720512442e-05
-4.49214834801e-05
-4.47539836796e-05
-4.45722402147e-05
-4.43748896086e-05
-4.41649840443e-05
-4.39408058802e-05
-4.37056197554e-05
-4.34576700204e-05
-4.32002459448e-05
-4.29316661023e-05
-4.2654932629e-05
-4.23677071762e-05
-4.20700900473e-05
-4.17586335266e-05
-4.56957403281e-05
-4.58305695067e-05
-4.59615933944e-05
-4.60659541019e-05
-4.61439569841e-05
-4.6197000089e-05
-4.62270207042e-05
-4.6233543062e-05
-4.62180776389e-05
-4.61802113612e-05
-4.612170425e-05
-4.60421579526e-05
-4.59434860124e-05
-4.58252009553e-05
-4.56893929507e-05
-4.55354137497e-05
-4.53655817257e-05
-4.51789811084e-05
-4.49781869276e-05
-4.47621279384e-05
-4.45334645109e-05
-4.42910508322e-05
-4.40375228184e-05
-4.37719401588e-05
-4.34967108121e-05
-4.32112821957e-05
-4.29180913591e-05
-4.2613183355e-05
-4.22893971147e-05
-4.19372496682e-05
-4.67440733751e-05
-4.68628691374e-05
-4.69741716525e-05
-4.70559268514e-05
-4.71091712271e-05
-4.71362805891e-05
-4.71393240467e-05
-4.71183987055e-05
-4.70750004968e-05
-4.70091371064e-05
-4.69224595537e-05
-4.68148891434e-05
-4.66881734971e-05
-4.65421019546e-05
-4.63785463885e-05
-4.61971386122e-05
-4.59999055515e-05
-4.57862955017e-05
-4.55584981701e-05
-4.53158134745e-05
-4.50605173033e-05
-4.47919085798e-05
-4.45122147547e-05
-4.42204850591e-05
-4.39195642512e-05
-4.3608929174e-05
-4.32917322668e-05
-4.29602905372e-05
-4.2595928478e-05
-4.21783634986e-05
-4.80634106026e-05
-4.81568136742e-05
-4.82389705491e-05
-4.82894178865e-05
-4.8310081637e-05
-4.83036202453e-05
-4.8272178733e-05
-4.82162010238e-05
-4.81371905348e-05
-4.80355105777e-05
-4.79127212607e-05
-4.77690740678e-05
-4.76061567751e-05
-4.74240690234e-05
-4.72244782913e-05
-4.7007314592e-05
-4.67743698575e-05
-4.65253927652e-05
-4.62623224901e-05
-4.59847385139e-05
-4.56947559035e-05
-4.53917104845e-05
-4.50778923259e-05
-4.4752753045e-05
-4.44186636741e-05
-4.40761833107e-05
-4.37287040796e-05
-4.33639118003e-05
-4.29436392834e-05
-4.24325127828e-05
-4.96377852095e-05
-4.96964277511e-05
-4.97389391964e-05
-4.97484226194e-05
-4.97271300008e-05
-4.96782544021e-05
-4.96036090904e-05
-4.95042530898e-05
-4.9381447806e-05
-4.92361009467e-05
-4.90694987122e-05
-4.88823358699e-05
-4.86759258136e-05
-4.84507136415e-05
-4.82081192357e-05
-4.79483266373e-05
-4.76729202965e-05
-4.73818401566e-05
-4.70768506337e-05
-4.67577147477e-05
-4.64263074395e-05
-4.60823586032e-05
-4.57277458326e-05
-4.536170791e-05
-4.49874237811e-05
-4.46059467909e-05
-4.42217849819e-05
-4.38156687989e-05
-4.3321969425e-05
-4.26799661545e-05
-5.14293121805e-05
-5.14412306386e-05
-5.14318794856e-05
-5.13887720189e-05
-5.13149377505e-05
-5.12136184972e-05
-5.10864477826e-05
-5.09348818374e-05
-5.07600331219e-05
-5.05632111558e-05
-5.03454456004e-05
-5.01077966506e-05
-4.98512572567e-05
-4.95766036462e-05
-4.92849065738e-05
-4.89766443501e-05
-4.86530606122e-05
-4.83143467134e-05
-4.79619649897e-05
-4.75958784696e-05
-4.72178170961e-05
-4.68274656852e-05
-4.6426755492e-05
-4.6015473702e-05
-4.55960120535e-05
-4.51714146751e-05
-4.47471692278e-05
-4.42953963824e-05
-4.37106448007e-05
-4.28973942442e-05
-5.34101877751e-05
-5.33643924856e-05
-5.32909793773e-05
-5.31842749942e-05
-5.30477704129e-05
-5.2884775283e-05
-5.26965089533e-05
-5.24849065377e-05
-5.22508021304e-05
-5.1995922356e-05
-5.1720932582e-05
-5.14272297301e-05
-5.11154052972e-05
-5.07865062415e-05
-5.04411941321e-05
-5.00801614454e-05
-4.97042526708e-05
-4.93138631166e-05
-4.89100682357e-05
-4.84930895895e-05
-4.80641535761e-05
-4.76235125637e-05
-4.71723715279e-05
-4.6710394963e-05
-4.62407869778e-05
-4.57679691712e-05
-4.52994204134e-05
-4.47961654776e-05
-4.4100425716e-05
-4.30640017471e-05
-5.55392531721e-05
-5.54224958863e-05
-5.52718897179e-05
-5.50898404083e-05
-5.4880401655e-05
-5.46465084433e-05
-5.43889944541e-05
-5.41101043245e-05
-5.38103998186e-05
-5.34918841914e-05
-5.31548174468e-05
-5.28008244986e-05
-5.24300134141e-05
-5.2043624398e-05
-5.16418039474e-05
-5.12254181678e-05
-5.07948033024e-05
-5.03505000334e-05
-4.98931187191e-05
-4.94230054163e-05
-4.89411121002e-05
-4.84475970932e-05
-4.79435961836e-05
-4.74292946236e-05
-4.69069544019e-05
-4.63838280519e-05
-4.58702154735e-05
-4.53136658245e-05
-4.44875091941e-05
-4.31727444001e-05
-5.77793235285e-05
-5.75802780296e-05
-5.73403041785e-05
-5.70724881589e-05
-5.67811980437e-05
-5.64687702349e-05
-5.61354904938e-05
-5.57838579006e-05
-5.54140823781e-05
-5.50283310868e-05
-5.4626388908e-05
-5.42099672161e-05
-5.37786490277e-05
-5.33337108972e-05
-5.28747433323e-05
-5.240261904e-05
-5.19171145405e-05
-5.14187987732e-05
-5.09077273017e-05
-5.03843728767e-05
-4.9849027654e-05
-4.93023331333e-05
-4.87445852988e-05
-4.81757538371e-05
-4.75988749993e-05
-4.70234924596e-05
-4.6463722142e-05
-4.58518952043e-05
-4.48753925425e-05
-4.32162982966e-05
-6.00858627382e-05
-5.97918907049e-05
-5.94506475293e-05
-5.90873464138e-05
-5.87063528744e-05
-5.83089729883e-05
-5.78949047102e-05
-5.74667026482e-05
-5.70241958104e-05
-5.65695210238e-05
-5.61019436206e-05
-5.56230842896e-05
-5.5131929396e-05
-5.46296374075e-05
-5.41151633589e-05
-5.35892511764e-05
-5.30510461184e-05
-5.25009934099e-05
-5.19385618708e-05
-5.13641157203e-05
-5.07775668788e-05
-5.01793113214e-05
-4.95694406711e-05
-4.89481997323e-05
-4.83176192122e-05
-4.76907777482e-05
-4.70875201797e-05
-4.64225642485e-05
-4.52776493312e-05
-4.32054613604e-05
-6.24146306995e-05
-6.20160695597e-05
-6.15636673793e-05
-6.10971688155e-05
-6.06207581186e-05
-6.0134245801e-05
-5.96366604138e-05
-5.91304237143e-05
-5.86149504699e-05
-5.80921217527e-05
-5.75606611812e-05
-5.70218691141e-05
-5.64741328918e-05
-5.59182611215e-05
-5.53525721053e-05
-5.47774623082e-05
-5.41914208603e-05
-5.35945924935e-05
-5.29857940969e-05
-5.23652132406e-05
-5.1732030524e-05
-5.1086827803e-05
-5.04288846843e-05
-4.97579867795e-05
-4.90767008807e-05
-4.84011337199e-05
-4.77578714175e-05
-4.70439803093e-05
-4.57153433703e-05
-4.31533999491e-05
-6.47201697286e-05
-6.42071597591e-05
-6.36352682229e-05
-6.30599432105e-05
-6.24844759086e-05
-6.19068031418e-05
-6.13252192712e-05
-6.07417836377e-05
-6.01554557348e-05
-5.95676313231e-05
-5.89764553626e-05
-5.83827020942e-05
-5.77841216839e-05
-5.7180988622e-05
-5.65709415346e-05
-5.59538546587e-05
-5.53275295738e-05
-5.46916234956e-05
-5.40442907753e-05
-5.33852837483e-05
-5.27133089517e-05
-5.20284795104e-05
-5.13297227308e-05
-5.06167124205e-05
-4.98908991387e-05
-4.91722550817e-05
-4.84968522924e-05
-4.77429464961e-05
-4.62196765077e-05
-4.30901689906e-05
-6.69567410449e-05
-6.6323300607e-05
-6.56264464497e-05
-6.4939153521e-05
-6.42636248738e-05
-6.35953529543e-05
-6.29318426388e-05
-6.22745662283e-05
-6.16219892294e-05
-6.09747860369e-05
-6.03305176564e-05
-5.96892082785e-05
-5.90479884781e-05
-5.840638716e-05
-5.77613845154e-05
-5.71121431728e-05
-5.64557712847e-05
-5.5791284543e-05
-5.51161348731e-05
-5.44295635688e-05
-5.37295172487e-05
-5.30159282366e-05
-5.22869954194e-05
-5.15416213065e-05
-5.0781267152e-05
-5.00291646993e-05
-4.93319122759e-05
-4.85515112123e-05
-4.6829659189e-05
-4.30513869859e-05
-6.90826068347e-05
-6.83234316312e-05
-6.74986577899e-05
-6.66992162523e-05
-6.59251711325e-05
-6.51693395591e-05
-6.44283815536e-05
-6.37029561577e-05
-6.29909906519e-05
-6.22922345821e-05
-6.1603645329e-05
-6.09243368347e-05
-6.02508141789e-05
-5.95817280449e-05
-5.89133999252e-05
-5.82441580802e-05
-5.75704288598e-05
-5.6890455659e-05
-5.6201003586e-05
-5.55006196896e-05
-5.47866996555e-05
-5.40585408898e-05
-5.33138674662e-05
-5.25511299884e-05
-5.17703609336e-05
-5.09983310101e-05
-5.02952257468e-05
-4.95081413482e-05
-4.75921388001e-05
-4.30861340282e-05
-7.10570842885e-05
-7.01712895281e-05
-6.9218885819e-05
-6.83096650851e-05
-6.74413217667e-05
-6.66034527398e-05
-6.57918104297e-05
-6.50060844438e-05
-6.42435904596e-05
-6.35030099548e-05
-6.27806853518e-05
-6.20747055057e-05
-6.13809761665e-05
-6.06971769144e-05
-6.00190102401e-05
-5.93439001788e-05
-5.86676152558e-05
-5.79875807497e-05
-5.72998834586e-05
-5.66023727451e-05
-5.58917386116e-05
-5.51668617941e-05
-5.44249098923e-05
-5.36633905167e-05
-5.28816833265e-05
-5.21092694806e-05
-5.14208154479e-05
-5.0654490937e-05
-4.85612214906e-05
-4.3250922344e-05
-7.28470494131e-05
-7.18348088198e-05
-7.07579508962e-05
-6.97444941974e-05
-6.87884245209e-05
-6.78761831164e-05
-6.70025620755e-05
-6.61661237142e-05
-6.53635211665e-05
-6.45922741145e-05
-6.38481027501e-05
-6.31280410409e-05
-6.24274167129e-05
-6.17429421174e-05
-6.10697422387e-05
-6.04043516697e-05
-5.97419432062e-05
-5.90791305596e-05
-5.8411390116e-05
-5.77358546911e-05
-5.70487120929e-05
-5.63482687746e-05
-5.56313381772e-05
-5.48950001139e-05
-5.41369640565e-05
-5.33891918413e-05
-5.27438619876e-05
-5.20350911882e-05
-4.97960321372e-05
-4.361351947e-05
-7.44222700432e-05
-7.32882549938e-05
-7.20931797675e-05
-7.09830691621e-05
-6.99480549756e-05
-6.89709695458e-05
-6.80455881906e-05
-6.71693267787e-05
-6.63380725066e-05
-6.5548200685e-05
-6.47948003272e-05
-6.40739045763e-05
-6.33803096825e-05
-6.27098382945e-05
-6.20571182754e-05
-6.14178884287e-05
-6.07868084466e-05
-6.01597817196e-05
-5.95317701114e-05
-5.88993040673e-05
-5.82581021794e-05
-5.76061525902e-05
-5.69402070535e-05
-5.62568210672e-05
-5.55529665775e-05
-5.48623630031e-05
-5.42953806775e-05
-5.36927587029e-05
-5.13609263391e-05
-4.42508873295e-05
-7.57617455312e-05
-7.45114881042e-05
-7.32070607303e-05
-7.20107024808e-05
-7.09071023997e-05
-6.98760067177e-05
-6.89100969275e-05
-6.80056115618e-05
-6.71576195425e-05
-6.63614319084e-05
-6.56115117747e-05
-6.49030457008e-05
-6.42303435379e-05
-6.35885341518e-05
-6.29718255243e-05
-6.23753624146e-05
-6.17933971751e-05
-6.12213173193e-05
-6.06536728059e-05
-6.00865719239e-05
-5.95154453297e-05
-5.89381526536e-05
-5.83516277336e-05
-5.77529425668e-05
-5.71381491111e-05
-5.65428695671e-05
-5.60992383517e-05
-5.56656342911e-05
-5.33216119322e-05
-4.52564248965e-05
-7.68485800999e-05
-7.54918687895e-05
-7.40895171108e-05
-7.28184073021e-05
-7.16581159014e-05
-7.05847958969e-05
-6.9590179883e-05
-6.86693437133e-05
-6.78165844542e-05
-6.70262076904e-05
-6.62922139841e-05
-6.56090380475e-05
-6.49707427782e-05
-6.43718719519e-05
-6.38065119244e-05
-6.32693287334e-05
-6.27545028914e-05
-6.22569747176e-05
-6.17712461192e-05
-6.12929941821e-05
-6.0817725721e-05
-6.03431195238e-05
-5.98670123909e-05
-5.93870759411e-05
-5.89003316329e-05
-5.84444884247e-05
-5.81757246503e-05
-5.79897442605e-05
-5.57551125047e-05
-4.67560913054e-05
-7.76755096844e-05
-7.62224372796e-05
-7.47353572468e-05
-7.34031363544e-05
-7.21984645574e-05
-7.10949827229e-05
-7.00834318891e-05
-6.91578395191e-05
-6.83117175378e-05
-6.75386524186e-05
-6.68322043402e-05
-6.61864326874e-05
-6.55952101583e-05
-6.50529344165e-05
-6.45536918937e-05
-6.40921202082e-05
-6.36624887264e-05
-6.32597264777e-05
-6.28784050145e-05
-6.25141364395e-05
-6.21624284837e-05
-6.18210551871e-05
-6.14884619206e-05
-6.11638541203e-05
-6.08456581992e-05
-6.0574530244e-05
-6.05352105082e-05
-6.06833620236e-05
-5.87212532254e-05
-4.89019165102e-05
-7.82373398036e-05
-7.66998485513e-05
-7.51411854527e-05
-7.37592433001e-05
-7.25206838056e-05
-7.13966013806e-05
-7.03766695394e-05
-6.94542255474e-05
-6.86218313223e-05
-6.78727117434e-05
-6.71998976359e-05
-6.65975177121e-05
-6.60591676032e-05
-6.55796969097e-05
-6.51530180688e-05
-6.47745800361e-05
-6.44384450434e-05
-6.41405677918e-05
-6.38751158769e-05
-6.36386812545e-05
-6.34259757681e-05
-6.32355616252e-05
-6.30650735311e-05
-6.29161228763e-05
-6.27876124239e-05
-6.27261883079e-05
-6.29441338066e-05
-6.34962979183e-05
-6.2034305553e-05
-5.17759481916e-05
-7.8535233421e-05
-7.69265680826e-05
-7.53075935978e-05
-7.38851675545e-05
-7.26200511781e-05
-7.14806110844e-05
-7.04565858706e-05
-6.9539359199e-05
-6.87216984393e-05
-6.79952049623e-05
-6.73537819643e-05
-6.67901980257e-05
-6.62993572942e-05
-6.58748820079e-05
-6.55126050482e-05
-6.52067240256e-05
-6.49537194482e-05
-6.47481800343e-05
-6.45869733982e-05
-6.4464813904e-05
-6.43787346253e-05
-6.43242629448e-05
-6.4300493717e-05
-6.43052176545e-05
-6.43408478588e-05
-6.4454674145e-05
-6.48921961367e-05
-6.58508509785e-05
-6.52558015334e-05
-5.59223847397e-05
-7.85992195888e-05
-7.69530567465e-05
-7.53063483907e-05
-7.38767917043e-05
-7.2617515574e-05
-7.14974561477e-05
-7.05043033658e-05
-6.96309617818e-05
-6.88686981194e-05
-6.82111863022e-05
-6.76517010816e-05
-6.71852783255e-05
-6.68069369397e-05
-6.65129361431e-05
-6.62997880654e-05
-6.61646930754e-05
-6.61052799036e-05
-6.61193498884e-05
-6.62048226167e-05
-6.63590689228e-05
-6.65790898658e-05
-6.68592458042e-05
-6.71937622164e-05
-6.75698109442e-05
-6.79759058286e-05
-6.84309777471e-05
-6.91430859963e-05
-7.03124754474e-05
-7.04951789267e-05
-6.46793136268e-05
-7.8560309052e-05
-7.69737113254e-05
-7.54459361625e-05
-7.41611870863e-05
-7.30656054689e-05
-7.21296568498e-05
-7.13470732621e-05
-7.07137814276e-05
-7.02269747112e-05
-6.98849432243e-05
-6.96871347546e-05
-6.96343931653e-05
-6.97277804507e-05
-6.99704639117e-05
-7.03646758801e-05
-7.09151535404e-05
-7.16245287046e-05
-7.24976274667e-05
-7.35358096198e-05
-7.47417060765e-05
-7.61103865073e-05
-7.76360397841e-05
-7.92954380248e-05
-8.10539349678e-05
-8.28346461617e-05
-8.45528172459e-05
-8.60841676631e-05
-8.67653001901e-05
-8.41712440965e-05
-7.85526597626e-05
-4.13318239112e-05
-4.10477462938e-05
-4.07569230267e-05
-4.04613023227e-05
-4.01626576063e-05
-3.98580719767e-05
-3.95503191177e-05
-3.92366838258e-05
-3.89202480818e-05
-3.85981839702e-05
-3.82735918812e-05
-3.79436491493e-05
-3.76114391601e-05
-3.72743772707e-05
-3.69353374205e-05
-3.65918225767e-05
-3.62466982756e-05
-3.58975829106e-05
-3.55472496457e-05
-3.5193536271e-05
-3.48389528461e-05
-3.448164923e-05
-3.41237801882e-05
-3.37638625949e-05
-3.34035757369e-05
-3.30419298073e-05
-3.26801347136e-05
-3.23174001718e-05
-3.19547914046e-05
-3.15917756228e-05
-3.12291835477e-05
-3.08662341176e-05
-3.05040836212e-05
-3.01416164962e-05
-2.97802592923e-05
-2.94183910656e-05
-2.90577640442e-05
-2.86963402297e-05
-2.83361480944e-05
-2.79747486779e-05
-2.76145415976e-05
-2.72525261528e-05
-2.68914257944e-05
-2.65280834774e-05
-2.61651790379e-05
-2.57996660845e-05
-2.54334844119e-05
-2.50614526292e-05
-2.46844503123e-05
-2.43251108746e-05
-4.15100848081e-05
-4.12144872441e-05
-4.0918129132e-05
-4.06195690371e-05
-4.03190503595e-05
-4.0011534368e-05
-3.97010406832e-05
-3.93834961894e-05
-3.90635279748e-05
-3.87366230452e-05
-3.840758259e-05
-3.80720483129e-05
-3.77346214169e-05
-3.73910029733e-05
-3.7045882917e-05
-3.66950249588e-05
-3.63430615805e-05
-3.59860790851e-05
-3.56283562372e-05
-3.52663877269e-05
-3.49040391253e-05
-3.45383033427e-05
-3.41725010074e-05
-3.38041593565e-05
-3.34360586807e-05
-3.30661301308e-05
-3.26967919989e-05
-3.23263694065e-05
-3.19568706614e-05
-3.15866838955e-05
-3.12179543715e-05
-3.08487691464e-05
-3.04813826992e-05
-3.01137562551e-05
-2.97482250539e-05
-2.93822918468e-05
-2.90186310866e-05
-2.86542283248e-05
-2.82923529392e-05
-2.79293998918e-05
-2.75690681136e-05
-2.72071621586e-05
-2.68477327688e-05
-2.64860883324e-05
-2.61264552944e-05
-2.57645881788e-05
-2.54038382497e-05
-2.50363277741e-05
-2.46584282726e-05
-2.42840826072e-05
-4.17490895198e-05
-4.14237416733e-05
-4.11137267574e-05
-4.08092553107e-05
-4.05040494286e-05
-4.01910238196e-05
-3.98746077835e-05
-3.95507761446e-05
-3.92241139976e-05
-3.8890571307e-05
-3.85543536374e-05
-3.82114545229e-05
-3.78661770557e-05
-3.75148382996e-05
-3.71613241901e-05
-3.68024635537e-05
-3.64418374576e-05
-3.60763199448e-05
-3.57096068314e-05
-3.53387746539e-05
-3.49673241389e-05
-3.45925982572e-05
-3.42178173545e-05
-3.3840610126e-05
-3.34638785932e-05
-3.30855664925e-05
-3.27082971491e-05
-3.23299765641e-05
-3.19534310023e-05
-3.15765032311e-05
-3.12018921572e-05
-3.08273858872e-05
-3.04558213362e-05
-3.00845933669e-05
-2.97167141844e-05
-2.93495557951e-05
-2.89860730253e-05
-2.86231733015e-05
-2.82643636192e-05
-2.79060295203e-05
-2.75521112413e-05
-2.71983209429e-05
-2.68489862342e-05
-2.64994033763e-05
-2.61539988857e-05
-2.58089706481e-05
-2.54681218019e-05
-2.51223615771e-05
-2.47579546375e-05
-2.43665839798e-05
-4.20961362289e-05
-4.1720791994e-05
-4.13900629398e-05
-4.10781390427e-05
-4.07670972225e-05
-4.04473695666e-05
-4.01229488395e-05
-3.97910092263e-05
-3.94553781261e-05
-3.91122926415e-05
-3.87657336074e-05
-3.84124131866e-05
-3.80558040633e-05
-3.7692737517e-05
-3.73269982774e-05
-3.69553193693e-05
-3.65815556835e-05
-3.62029264716e-05
-3.58228015807e-05
-3.54387021166e-05
-3.50538283016e-05
-3.46659376683e-05
-3.427805098e-05
-3.38880752208e-05
-3.34989412619e-05
-3.31085576043e-05
-3.2719857769e-05
-3.23310440565e-05
-3.19446147727e-05
-3.15587042153e-05
-3.11761739939e-05
-3.07947516735e-05
-3.04174679126e-05
-3.00419789159e-05
-2.96714346785e-05
-2.93027635164e-05
-2.89398670564e-05
-2.85791354198e-05
-2.82248677744e-05
-2.78729974192e-05
-2.7528079231e-05
-2.71858186925e-05
-2.68506257264e-05
-2.65181036938e-05
-2.61927230926e-05
-2.58713920474e-05
-2.55590608562e-05
-2.52441358388e-05
-2.48973800461e-05
-2.44744012845e-05
-4.25180919173e-05
-4.20693407451e-05
-4.17120870104e-05
-4.13944924968e-05
-4.10791625258e-05
-4.07523906132e-05
-4.04194117507e-05
-4.00776162393e-05
-3.97311889217e-05
-3.93769880716e-05
-3.90182675471e-05
-3.86519518641e-05
-3.82816351085e-05
-3.79047424159e-05
-3.75241126938e-05
-3.71380122837e-05
-3.67488253193e-05
-3.63547577272e-05
-3.59585591487e-05
-3.55585298236e-05
-3.51573757067e-05
-3.4753454308e-05
-3.43494891479e-05
-3.39438220105e-05
-3.35392159921e-05
-3.31340073467e-05
-3.27310422941e-05
-3.23281557178e-05
-3.1928977905e-05
-3.15309965283e-05
-3.11377995241e-05
-3.07467506779e-05
-3.03618805409e-05
-2.99797214507e-05
-2.96049583632e-05
-2.92339760299e-05
-2.8871436924e-05
-2.85133582369e-05
-2.81647491709e-05
-2.78212554233e-05
-2.74881266116e-05
-2.71607463731e-05
-2.68443065925e-05
-2.65342307586e-05
-2.62355477873e-05
-2.59459762123e-05
-2.56721678129e-05
-2.53992295387e-05
-2.50738398397e-05
-2.45970261858e-05
-4.30122749219e-05
-4.24584925979e-05
-4.2067772384e-05
-4.17463677561e-05
-4.14289941924e-05
-4.10972099259e-05
-4.07561357906e-05
-4.04053826065e-05
-4.00482810985e-05
-3.96818917571e-05
-3.93095382237e-05
-3.89291258235e-05
-3.85430862363e-05
-3.81496277073e-05
-3.77515993674e-05
-3.73469857532e-05
-3.69387488227e-05
-3.65255421464e-05
-3.61096844066e-05
-3.56900563409e-05
-3.52690302329e-05
-3.48454821402e-05
-3.44219376209e-05
-3.39970975174e-05
-3.35738092771e-05
-3.31503499925e-05
-3.27300417717e-05
-3.23111688332e-05
-3.18968149203e-05
-3.14849280712e-05
-3.10794650359e-05
-3.06776121733e-05
-3.0283670549e-05
-2.9894809206e-05
-2.95155441776e-05
-2.91420658892e-05
-2.87800166661e-05
-2.84249150561e-05
-2.80828674564e-05
-2.77490204884e-05
-2.74295950789e-05
-2.71198050571e-05
-2.68254320361e-05
-2.654172234e-05
-2.62746554727e-05
-2.60227126932e-05
-2.57956214457e-05
-2.55733574766e-05
-2.52696379659e-05
-2.47086510972e-05
-4.35777342359e-05
-4.28827640592e-05
-4.24527281954e-05
-4.21331266074e-05
-4.18185351487e-05
-4.14832555866e-05
-4.11354034071e-05
-4.07752737256e-05
-4.04067948421e-05
-4.00279277558e-05
-3.96411201434e-05
-3.92444340787e-05
-3.88409351279e-05
-3.84292793379e-05
-3.80113956967e-05
-3.75871031195e-05
-3.71577484174e-05
-3.67229671619e-05
-3.62847078882e-05
-3.58425505509e-05
-3.5398573315e-05
-3.49521834533e-05
-3.45057788488e-05
-3.40584518031e-05
-3.36129732062e-05
-3.31681479809e-05
-3.27271611335e-05
-3.22879622786e-05
-3.18549769281e-05
-3.1425569342e-05
-3.10041752102e-05
-3.05880206247e-05
-3.01823075593e-05
-2.97830624893e-05
-2.9396515285e-05
-2.90185252186e-05
-2.86553694488e-05
-2.8302405087e-05
-2.79665206538e-05
-2.7642696131e-05
-2.7338103435e-05
-2.70475656426e-05
-2.67781160867e-05
-2.65246658826e-05
-2.62942017251e-05
-2.60865581281e-05
-2.59151570044e-05
-2.57540157952e-05
-2.54715082879e-05
-2.47878076152e-05
-4.421106161e-05
-4.33280114686e-05
-4.28511689851e-05
-4.25389050593e-05
-4.22324707204e-05
-4.18984055168e-05
-4.15461723551e-05
-4.11792574981e-05
-4.08011392299e-05
-4.04096942644e-05
-4.00079558653e-05
-3.95951480633e-05
-3.91729152287e-05
-3.87410262112e-05
-3.83015670583e-05
-3.78539596865e-05
-3.74003854541e-05
-3.69409884714e-05
-3.64772772113e-05
-3.60094551066e-05
-3.55393711498e-05
-3.50669407333e-05
-3.45944696773e-05
-3.41213927235e-05
-3.36506822854e-05
-3.31810849647e-05
-3.27163222173e-05
-3.22549154291e-05
-3.18005561224e-05
-3.13512413943e-05
-3.09120010236e-05
-3.04797716037e-05
-3.00600482393e-05
-2.96498829822e-05
-2.92550620069e-05
-2.88715152135e-05
-2.85064787006e-05
-2.81551227723e-05
-2.78253392713e-05
-2.75118696875e-05
-2.72229090813e-05
-2.69533013218e-05
-2.67108749377e-05
-2.64903089673e-05
-2.63000932376e-05
-2.61412203276e-05
-2.60328208282e-05
-2.59412309666e-05
-2.56766650629e-05
-2.48223463941e-05
-4.49273410896e-05
-4.38030256866e-05
-4.3272144589e-05
-4.29755657529e-05
-4.26840283451e-05
-4.23536195308e-05
-4.19993695111e-05
-4.16264544413e-05
-4.12387799761e-05
-4.08356073284e-05
-4.04189041439e-05
-3.99880769027e-05
-3.95460386008e-05
-3.90926792839e-05
-3.86294866688e-05
-3.81576958757e-05
-3.76781409528e-05
-3.71917297046e-05
-3.67000343938e-05
-3.62037813066e-05
-3.57047146263e-05
-3.52032352011e-05
-3.4701609486e-05
-3.41997188568e-05
-3.37004383994e-05
-3.32031366841e-05
-3.2711375897e-05
-3.22234835148e-05
-3.17445236616e-05
-3.12721121433e-05
-3.08113355014e-05
-3.0359759862e-05
-2.99234786946e-05
-2.94986368537e-05
-2.90926422521e-05
-2.87014193437e-05
-2.83326238538e-05
-2.79815971805e-05
-2.76569425284e-05
-2.73534790748e-05
-2.70804487009e-05
-2.68324913558e-05
-2.66188622534e-05
-2.64340705643e-05
-2.62876528216e-05
-2.6182951385e-05
-2.61454193066e-05
-2.61333928246e-05
-2.58829759884e-05
-2.4801192352e-05
-4.57342607851e-05
-4.43047165249e-05
-4.37114409298e-05
-4.34389256119e-05
-4.31693420178e-05
-4.2848323848e-05
-4.24950492235e-05
-4.21188885216e-05
-4.17238823314e-05
-4.13088909007e-05
-4.08769979191e-05
-4.04288705638e-05
-3.99659163951e-05
-3.94894350846e-05
-3.90012905751e-05
-3.85021679736e-05
-3.79940013273e-05
-3.74781918785e-05
-3.69559316384e-05
-3.64285511532e-05
-3.58977495856e-05
-3.5364382667e-05
-3.48307563337e-05
-3.42970977e-05
-3.37665303385e-05
-3.32384466746e-05
-3.27168935849e-05
-3.22008689744e-05
-3.16946247227e-05
-3.11965199061e-05
-3.07124564629e-05
-3.02395424855e-05
-2.97842504227e-05
-2.93439428907e-05
-2.89254941089e-05
-2.85251130023e-05
-2.81513882763e-05
-2.77997236371e-05
-2.74795847542e-05
-2.71859630161e-05
-2.69289317022e-05
-2.67036240564e-05
-2.6519974537e-05
-2.63725401991e-05
-2.62724566238e-05
-2.62252371126e-05
-2.62649142121e-05
-2.63411667264e-05
-2.60996405017e-05
-2.47247175418e-05
-4.66599499583e-05
-4.48537978603e-05
-4.41893499305e-05
-4.39506160715e-05
-4.37099067501e-05
-4.34005380701e-05
-4.30507203983e-05
-4.2672668573e-05
-4.22705313187e-05
-4.18449573529e-05
-4.13980287623e-05
-4.09306630199e-05
-4.04460890949e-05
-3.99454137705e-05
-3.94302213473e-05
-3.89029903548e-05
-3.8364608362e-05
-3.78170343051e-05
-3.72619469835e-05
-3.67009776194e-05
-3.61359738055e-05
-3.55681594803e-05
-3.49999672534e-05
-3.44320058716e-05
-3.38674084494e-05
-3.33061774829e-05
-3.27522633408e-05
-3.22046393366e-05
-3.16687368528e-05
-3.11428197561e-05
-3.06323944721e-05
-3.0135784172e-05
-2.96596950633e-05
-2.92009148343e-05
-2.87676833283e-05
-2.83565930807e-05
-2.7976329864e-05
-2.76228763985e-05
-2.73062323157e-05
-2.70218732603e-05
-2.67807460249e-05
-2.65782400025e-05
-2.64255732265e-05
-2.63175614213e-05
-2.62661056485e-05
-2.62802222328e-05
-2.6403487944e-05
-2.65776127887e-05
-2.63399637502e-05
-2.45979788701e-05
-4.77277531953e-05
-4.5464292389e-05
-4.47196883537e-05
-4.45243560095e-05
-4.43190249171e-05
-4.40259042957e-05
-4.36815577078e-05
-4.33031521155e-05
-4.28955167051e-05
-4.24586792861e-05
-4.19961367175e-05
-4.15102104397e-05
-4.10025995128e-05
-4.04761290167e-05
-3.99329238243e-05
-3.93748359093e-05
-3.88040456971e-05
-3.82229477885e-05
-3.76329834585e-05
-3.70363347443e-05
-3.64350075343e-05
-3.5830579704e-05
-3.52256662089e-05
-3.46211871184e-05
-3.40205608934e-05
-3.34239396206e-05
-3.28355853595e-05
-3.22552344412e-05
-3.16875076284e-05
-3.11315418198e-05
-3.05936537272e-05
-3.00717449559e-05
-2.95727572801e-05
-2.90950015859e-05
-2.86459354585e-05
-2.82227958839e-05
-2.78349493131e-05
-2.747887256e-05
-2.71650670923e-05
-2.68896744189e-05
-2.66642065238e-05
-2.64849937756e-05
-2.6363864409e-05
-2.62960864246e-05
-2.6294841502e-05
-2.63723096694e-05
-2.65840127894e-05
-2.6865148177e-05
-2.66266286145e-05
-2.44360895145e-05
-4.89774403713e-05
-4.61687198222e-05
-4.53346651613e-05
-4.51923454657e-05
-4.50274730798e-05
-4.47513112243e-05
-4.44137588224e-05
-4.40358725708e-05
-4.36220994255e-05
-4.31745740206e-05
-4.26960178163e-05
-4.21891257239e-05
-4.16577471482e-05
-4.11043010598e-05
-4.05309281139e-05
-3.9941216918e-05
-3.93366029352e-05
-3.87198886231e-05
-3.8093291517e-05
-3.74591216373e-05
-3.68196872154e-05
-3.61768653886e-05
-3.55334962226e-05
-3.48908636616e-05
-3.42524401702e-05
-3.36189494888e-05
-3.29946245603e-05
-3.23793492273e-05
-3.17786137732e-05
-3.11917500413e-05
-3.06243652124e-05
-3.00759820095e-05
-2.95534358661e-05
-2.90548343188e-05
-2.85886295918e-05
-2.81528127676e-05
-2.7756483963e-05
-2.73971699777e-05
-2.70855488171e-05
-2.68187272243e-05
-2.66087045737e-05
-2.64527324919e-05
-2.63635085667e-05
-2.63371411818e-05
-2.63869362985e-05
-2.65295859109e-05
-2.68335276102e-05
-2.72304017154e-05
-2.69865339571e-05
-2.42600012782e-05
-5.04481283803e-05
-4.69993126807e-05
-4.60673686129e-05
-4.59869572307e-05
-4.58659505934e-05
-4.56081910026e-05
-4.52771739192e-05
-4.48991954382e-05
-4.44794742958e-05
-4.4019520938e-05
-4.35235492607e-05
-4.29957709854e-05
-4.24386711651e-05
-4.18565477465e-05
-4.12521953279e-05
-4.06285075913e-05
-3.99883466705e-05
-3.93348744464e-05
-3.86701892386e-05
-3.79971125761e-05
-3.73182431593e-05
-3.66357517492e-05
-3.59527250749e-05
-3.52707603466e-05
-3.4593572076e-05
-3.39221537943e-05
-3.32608959562e-05
-3.26104737592e-05
-3.19756784414e-05
-3.13567416108e-05
-3.07599217319e-05
-3.01844662492e-05
-2.96372656662e-05
-2.91181334947e-05
-2.86345215755e-05
-2.81854226541e-05
-2.77802357505e-05
-2.74173864553e-05
-2.71076106715e-05
-2.68491839971e-05
-2.66542937875e-05
-2.65216054495e-05
-2.6464071467e-05
-2.6478873031e-05
-2.65797854668e-05
-2.67868497108e-05
-2.71854655478e-05
-2.77041147819e-05
-2.74551145306e-05
-2.40999547512e-05
-5.21897262974e-05
-4.80001082422e-05
-4.69624387349e-05
-4.69515602949e-05
-4.68753509321e-05
-4.66336855974e-05
-4.6308128701e-05
-4.59291659268e-05
-4.55012430375e-05
-4.50279824725e-05
-4.45132592638e-05
-4.3961713678e-05
-4.33780083972e-05
-4.27659248522e-05
-4.21284991547e-05
-4.14702678733e-05
-4.07935186905e-05
-4.01017851418e-05
-3.93980185004e-05
-3.86850993378e-05
-3.79659765101e-05
-3.72431041136e-05
-3.65198058078e-05
-3.57980290952e-05
-3.50815796142e-05
-3.4371978102e-05
-3.36736271047e-05
-3.29874672768e-05
-3.23188006891e-05
-3.16682647469e-05
-3.10413365412e-05
-3.04389766797e-05
-2.98677507031e-05
-2.93275319573e-05
-2.88264330181e-05
-2.83643950029e-05
-2.79502772879e-05
-2.75838620469e-05
-2.72756885986e-05
-2.7025435377e-05
-2.68451734366e-05
-2.67350966625e-05
-2.67084621173e-05
-2.67638389878e-05
-2.69145257246e-05
-2.71856475045e-05
-2.76773013619e-05
-2.83272469644e-05
-2.80751346177e-05
-2.39905225228e-05
-5.42541099645e-05
-4.92186000347e-05
-4.80690589814e-05
-4.81333810386e-05
-4.80997663903e-05
-4.78709939597e-05
-4.75476219151e-05
-4.71646180843e-05
-4.67268512136e-05
-4.62374698422e-05
-4.57017770219e-05
-4.51258344173e-05
-4.4513253377e-05
-4.38696645691e-05
-4.319865967e-05
-4.2504194129e-05
-4.17899219411e-05
-4.10596437642e-05
-4.0316299154e-05
-3.95632341128e-05
-3.8803695306e-05
-3.80404065726e-05
-3.72769245699e-05
-3.65155343163e-05
-3.57602273302e-05
-3.50128657193e-05
-3.42778637787e-05
-3.3556900379e-05
-3.28547714828e-05
-3.21729175821e-05
-3.15172848395e-05
-3.08886785676e-05
-3.02936393783e-05
-2.97336200307e-05
-2.92157104401e-05
-2.87409740265e-05
-2.83182698316e-05
-2.79484475126e-05
-2.76417524712e-05
-2.73992170089e-05
-2.7232881006e-05