/*--------------------------------*- C++ -*----------------------------------*\
| =========                 |                                                 |
| \\      /  F ield         | OpenFOAM: The Open Source CFD Toolbox           |
|  \\    /   O peration     | Version:  v1912                                 |
|   \\  /    A nd           | Website:  www.openfoam.com                      |
|    \\/     M anipulation  |                                                 |
\*---------------------------------------------------------------------------*/
FoamFile
{
    version     2.0;
    format      ascii;
    class       surfaceScalarField;
    location    "183";
    object      phi;
}
// * * * * * * * * * * * * * * * * * * * * * * * * * * * * * * * * * * * * * //

dimensions      [0 3 -1 0 0 0 0];
oriented        oriented;


internalField   nonuniform List<scalar> 
43645
(
-3.93216026899e-07
3.89577384741e-07
-1.4432925784e-06
1.04443685816e-06
-3.03890503234e-06
1.58947820372e-06
-5.09299608954e-06
2.04917462318e-06
-7.53135058349e-06
2.432782558e-06
-1.02834313075e-05
2.74788481515e-06
-1.32894745409e-05
3.00112069592e-06
-1.64912920377e-05
3.19830470876e-06
-1.9840361669e-05
3.3447163393e-06
-2.32884226852e-05
3.44513862872e-06
-2.67963884953e-05
3.50408576713e-06
-3.03245561103e-05
3.52573379069e-06
-3.3842191842e-05
3.51411149623e-06
-3.7317210068e-05
3.47297254895e-06
-4.07265080825e-05
3.40598928028e-06
-4.40448511797e-05
3.31657649174e-06
-4.72562004326e-05
3.20811122708e-06
-5.03414527204e-05
3.08371190701e-06
-5.32912076941e-05
2.94649427985e-06
-5.6091987386e-05
2.79928718071e-06
-5.87407874204e-05
2.64497029458e-06
-6.12285419916e-05
2.48611014407e-06
-6.35580338988e-05
2.32532234058e-06
-6.57247393604e-05
2.16490922487e-06
-6.77363817996e-05
2.00720504905e-06
-6.95925889451e-05
1.8542237468e-06
-7.13049548557e-05
1.70794633792e-06
-7.28769310302e-05
1.57002726794e-06
-7.43231653511e-05
1.44217923391e-06
1.32608252452e-06
-7.56510166315e-05
-3.21682629231e-07
7.0601566675e-07
-1.23499328716e-06
1.94865855661e-06
-2.65950076319e-06
3.00419294799e-06
-4.51624683432e-06
3.89766823041e-06
-6.73539892228e-06
4.6427563128e-06
-9.24675090517e-06
5.25192390128e-06
-1.19908761687e-05
5.73677844146e-06
-1.49072488788e-05
6.1082336272e-06
-1.79468896361e-05
6.37656415951e-06
-2.10588799512e-05
6.55149766044e-06
-2.42042537026e-05
6.64223373692e-06
-2.73410008214e-05
6.65753222639e-06
-3.04394159081e-05
6.60570684201e-06
-3.3465489271e-05
6.49470419057e-06
-3.63981818282e-05
6.33208488598e-06
-3.92105739181e-05
6.12509759103e-06
-4.1889681271e-05
5.88065069709e-06
-4.44147728011e-05
5.60537122931e-06
-4.67806425288e-05
5.30557916159e-06
-4.89718022311e-05
4.9873606203e-06
-5.09902852186e-05
4.65646869424e-06
-5.28254963198e-05
4.31848014103e-06
-5.44854945332e-05
3.97859576191e-06
-5.59649543856e-05
3.64187986005e-06
-5.72770420221e-05
3.31295962954e-06
-5.84215418176e-05
2.99634851086e-06
-5.94153375185e-05
2.69605736803e-06
-6.02632529056e-05
2.41576560113e-06
-6.09854516588e-05
2.15894960495e-06
1.92977382692e-06
-6.1591055998e-05
-3.01529967459e-07
1.00287113074e-06
-1.12224648097e-06
2.76199022112e-06
-2.37876051565e-06
4.2527084923e-06
-3.99674513108e-06
5.50928601702e-06
-5.90979799666e-06
6.54866295419e-06
-8.05083612153e-06
7.38753273439e-06
-1.03625385547e-05
8.04210446336e-06
-1.27869894496e-05
8.52809158656e-06
-1.52767164012e-05
8.86058081644e-06
-1.77831502923e-05
9.05407582533e-06
-2.02685197313e-05
9.12243012368e-06
-2.26931268451e-05
9.07892011887e-06
-2.50284375296e-05
8.93621001898e-06
-2.724284445e-05
8.70643614848e-06
-2.93165510333e-05
8.40117906195e-06
-3.12252075796e-05
8.03155647087e-06
-3.29573414825e-05
7.60818289396e-06
-3.44950752764e-05
7.14128036259e-06
-3.58346035948e-05
6.64060056031e-06
-3.69643953952e-05
6.11555257525e-06
-3.7887452693e-05
5.57510803452e-06
-3.85984447562e-05
5.02792342919e-06
-3.91062248075e-05
4.48221572853e-06
-3.94120364988e-05
3.9458430901e-06
-3.95298796789e-05
3.4263366677e-06
-3.94664573681e-05
2.93072906162e-06
-3.92412402935e-05
2.46563057963e-06
-3.88649165969e-05
2.03687483473e-06
-3.83622805621e-05
1.65025521921e-06
1.31272949943e-06
-3.77478907198e-05
-2.62379733102e-07
1.26156652588e-06
-9.62833420229e-07
3.45543047745e-06
-2.01166033028e-06
5.29418442907e-06
-3.33266224627e-06
6.82371330246e-06
-4.85812572088e-06
8.06704137546e-06
-6.52311322233e-06
9.04651746285e-06
-8.27149974204e-06
9.78382454987e-06
-1.00487368161e-05
1.02999116963e-05
-1.18093238367e-05
1.06149281799e-05
-1.35083579681e-05
1.07482328001e-05
-1.5110174797e-05
1.0718355294e-05
-1.65787276725e-05
1.05430629091e-05
-1.78875137335e-05
1.02393387497e-05
-1.90085791883e-05
9.82347995671e-06
-1.99240219994e-05
9.31107982591e-06
-2.06133202321e-05
8.71713959994e-06
-2.1066722262e-05
8.05604500117e-06
-2.12706338402e-05
7.34167887468e-06
-2.12230066582e-05
6.58738460298e-06
-2.09169880147e-05
5.80606825381e-06
-2.03576355417e-05
5.01015824667e-06
-1.9544882117e-05
4.21164549196e-06
-1.84907601145e-05
3.42210858117e-06
-1.72008502707e-05
2.65270757371e-06
-1.56945182222e-05
1.91404576328e-06
-1.39830588718e-05
1.21634685206e-06
-1.20925743855e-05
5.69092239908e-07
-1.00388295201e-05
-1.91415625899e-08
-7.85491082078e-06
-5.40012485235e-07
-9.8260526358e-07
-5.56101311344e-06
-2.11781365839e-07
1.47003096207e-06
-7.55732315861e-07
3.99427221817e-06
-1.54165730245e-06
6.07478347537e-06
-2.49266928795e-06
7.77044858374e-06
-3.54148785604e-06
9.1112962546e-06
-4.62478551984e-06
1.0126255962e-05
-5.68797528525e-06
1.08430666969e-05
-6.67941749395e-06
1.1288412901e-05
-7.55571194979e-06
1.14877757728e-05
-8.27546735154e-06
1.14655798556e-05
-8.80528591398e-06
1.12451062446e-05
-9.11284099014e-06
1.08486614497e-05
-9.17385145669e-06
1.02975382189e-05
-8.9641296386e-06
9.6121838595e-06
-8.46790809952e-06
8.81219501474e-06
-7.66849495963e-06
7.91646520874e-06
-6.55826625829e-06
6.94320044198e-06
-5.12766189389e-06
5.91003674233e-06
-3.37699526571e-06
4.83405813037e-06
-1.30368144572e-06
3.73188448768e-06
1.08400803214e-06
2.61965606564e-06
3.78176311057e-06
1.51314237185e-06
6.77366590193e-06
4.27609962458e-07
1.00474826348e-05
-6.22095127655e-07
1.3579800515e-05
-1.62146897339e-06
1.73517814643e-05
-2.55665042166e-06
2.13314007813e-05
-3.41446936962e-06
2.54939285235e-05
-4.18306534098e-06
2.979993551e-05
-4.85062450847e-06
-5.4014827998e-06
3.42170809198e-05
-1.47715779392e-07
1.6154126322e-06
-5.02036750276e-07
4.34355450496e-06
-9.72551638964e-07
6.54038888408e-06
-1.4846764564e-06
8.27774615533e-06
-1.9715620695e-06
9.593423171e-06
-2.37319078838e-06
1.05233705031e-05
-2.63647420344e-06
1.11018354503e-05
-2.7136769954e-06
1.1361449328e-05
-2.56338926385e-06
1.13332136367e-05
-2.14827004754e-06
1.10466419323e-05
-1.43703255256e-06
1.05297732704e-05
-4.01230235803e-07
9.80937168897e-06
9.81357981675e-07
8.91095575512e-06
2.73134182151e-06
7.85902490134e-06
4.86248494007e-06
6.6770910527e-06
7.38814461243e-06
5.38790534561e-06
1.03138855621e-05
4.01348065811e-06
1.36459201988e-05
2.57529648108e-06
1.73816372708e-05
1.09430759819e-06
2.15197421932e-05
-4.08899906884e-07
2.60494041486e-05
-1.91410563614e-06
3.09612515456e-05
-3.40141565254e-06
3.62354213521e-05
-4.85119918439e-06
4.185524142e-05
-6.24410095682e-06
4.77905929789e-05
-7.56127640548e-06
5.40162672146e-05
-8.78411189458e-06
6.04923596699e-05
-9.89491844286e-06
6.71857803107e-05
-1.08774918333e-05
7.40463179328e-05
-1.17157876971e-05
-1.23872928056e-05
8.10318368768e-05
-7.47139104811e-08
1.68810117028e-06
-2.0940014256e-07
4.47504184773e-06
-3.1729017475e-07
6.64535213365e-06
-3.26654032971e-07
8.2843833939e-06
-1.73667715224e-07
9.43802593191e-06
1.97796610498e-07
1.01495774668e-05
8.37732234414e-07
1.04598722671e-05
1.7896855673e-06
1.04075318292e-05
3.09221225749e-06
1.00289596491e-05
4.77862991865e-06
9.35860801816e-06
6.87785399158e-06
8.42903544133e-06
9.41472893729e-06
7.27121343272e-06
1.24096770105e-05
5.91461920543e-06
1.58801934493e-05
4.38754745917e-06
1.98387294575e-05
2.71721636591e-06
2.42959094653e-05
9.30061819493e-07
2.92562036277e-05
-9.48166449356e-07
3.47232113931e-05
-2.89214708021e-06
4.06930134013e-05
-4.87692733833e-06
4.71615482393e-05
-6.87770508927e-06
5.41156811503e-05
-8.86985599793e-06
6.15427901209e-05
-1.08286962799e-05
6.94198965464e-05
-1.27297063321e-05
7.77236690417e-05
-1.45483462189e-05
8.64204151878e-05
-1.62600361639e-05
9.54764915829e-05
-1.78405034259e-05
0.000104845120623
-1.92661422145e-05
0.000114482098029
-2.0515141118e-05
0.000124328938753
-2.15655868224e-05
-2.23865622224e-05
0.000134327121131
9.46187795384e-09
1.67748084915e-06
1.21392438204e-07
4.35991023738e-06
4.18505642868e-07
6.34552763609e-06
9.67029634827e-07
7.73273063819e-06
1.82673964276e-06
8.57572332106e-06
3.04825205753e-06
8.92507723855e-06
4.67762006116e-06
8.82807803597e-06
6.75333493998e-06
8.32901890912e-06
9.3106795577e-06
7.46933775653e-06
1.23787472629e-05
6.28795865912e-06
1.59841220191e-05
4.82147477118e-06
2.01484344142e-05
3.10455194859e-06
2.48907615582e-05
1.17013000852e-06
3.02263615281e-05
-9.50156323337e-07
3.61671756553e-05
-3.22578970462e-06
4.27223245197e-05
-5.62696063232e-06
4.98963102839e-05
-8.12441010661e-06
5.76915027921e-05
-1.06890651173e-05
6.61041442819e-05
-1.32919232e-05
7.51284256582e-05
-1.59037682966e-05
8.47511886034e-05
-1.84950953249e-05
9.49565987562e-05
-2.10359993645e-05
0.00010571992706
-2.34960777192e-05
0.000117014643539
-2.58444186092e-05
0.000128801712184
-2.80498946567e-05
0.000141040994929
-3.00808504455e-05
0.000153678348422
-3.19061330275e-05
0.00016665948953
-3.34965572216e-05
0.000179913757044
-3.48227269885e-05
-3.58421708795e-05
0.000193369647952
1.00591169395e-07
1.57584102281e-06
4.81758500146e-07
3.97705190144e-06
1.21795443664e-06
5.60822033725e-06
2.36861341725e-06
6.58056853349e-06
3.98713728872e-06
6.95641124187e-06
6.11761619725e-06
6.79326325046e-06
8.80080782397e-06
6.1443225287e-06
1.2069720911e-05
5.05893718247e-06
1.59558023217e-05
3.58285152266e-06
2.04840801856e-05
1.75869498544e-06
2.56789413978e-05
-3.73699728627e-07
3.15594754163e-05
-2.77676365005e-06
3.81441659468e-05
-5.41484920693e-06
4.54471541021e-05
-8.2536986259e-06
5.34811571561e-05
-1.12601101442e-05
6.22553064986e-05
-1.4401433909e-05
7.17757874803e-05
-1.76452760314e-05
8.20456090108e-05
-2.09590461304e-05
9.30629201362e-05
-2.43097390091e-05
0.000104822615328
-2.76635488335e-05
0.000117312574585
-3.09857932318e-05
0.000130517009226
-3.42405467091e-05
0.000144411119642
-3.73908310491e-05
0.000158964607929
-4.03983690405e-05
0.000174137042239
-4.32235556227e-05
0.000189881944886
-4.58258400663e-05
0.000206138687858
-4.81644725158e-05
0.000222842372157
-5.02005657892e-05
0.00023991266141
-5.18946950208e-05
-5.31902366308e-05
0.000257260080883
1.99390836812e-07
1.37622341771e-06
8.66325789484e-07
3.30855091445e-06
2.06598031966e-06
4.4076897108e-06
3.84852017108e-06
4.79645484496e-06
6.2594659097e-06
4.54469240757e-06
9.33507211091e-06
3.71606844859e-06
1.31098975456e-05
2.36879635309e-06
1.76110225638e-05
5.56249295056e-07
2.28658053955e-05
-1.67259568151e-06
2.8895532097e-05
-4.27252786473e-06
3.57227560017e-05
-7.20159662628e-06
4.33650361856e-05
-1.04204310382e-05
5.18411891537e-05
-1.38917298067e-05
6.11658276854e-05
-1.75795756103e-05
7.13538558373e-05
-2.14489523887e-05
8.24164337435e-05
-2.54650923802e-05
9.43632872464e-05
-2.9593046882e-05
0.000107200346774
-3.37971018863e-05
0.000120929989853
-3.80404269789e-05
0.000135549914926
-4.22846027641e-05
0.000151052258366
-4.64893565311e-05
0.000167422722929
-5.06123126359e-05
0.000184638926522
-5.46087829827e-05
0.00020267139347
-5.84316757883e-05
0.0002214780547
-6.20317411967e-05
0.000241008749126
-6.53572352386e-05
0.000261198161197
-6.83552433825e-05
0.000281972184983
-7.09745768353e-05
0.000303238855217
-7.31630023065e-05
-7.48454910951e-05
0.000324894518303
3.01359271223e-07
1.07458930144e-06
1.26402706631e-06
2.34547436509e-06
2.93975864631e-06
2.73224130664e-06
5.3678087569e-06
2.36792239187e-06
8.58401242683e-06
1.32887192932e-06
1.26158745743e-05
-3.16320887478e-07
1.7490864885e-05
-2.5057718508e-06
2.32300579142e-05
-5.18350172212e-06
2.9856646401e-05
-8.29876382065e-06
3.73888145858e-05
-1.18052447202e-05
4.58479224607e-05
-1.56603238353e-05
5.52512404189e-05
-1.98242402362e-05
6.56191681833e-05
-2.42593536696e-05
7.69685344979e-05
-2.89293272123e-05
8.93182073994e-05
-3.37984236757e-05
0.000102683592093
-3.88307291464e-05
0.000117080151281
-4.39895177177e-05
0.000132519415466
-4.92365399175e-05
0.000149010421633
-5.45314962489e-05
0.000166557031723
-5.98314180404e-05
0.000185157668657
-6.50903255463e-05
0.000204803671064
-7.02586778478e-05
0.000225477861193
-7.52833475912e-05
0.000247152782233
-8.01072807994e-05
0.000269789531942
-8.46693300686e-05
0.000293336706401
-8.89045382546e-05
0.000317725668426
-9.27451951772e-05
0.000342875193817
-9.61243110065e-05
0.000368684691764
-9.89733062457e-05
-0.000101195049966
0.000395033880634
4.05759596435e-07
6.6927181429e-07
1.66571922848e-06
1.08526448995e-06
3.81709776398e-06
5.81303114755e-07
6.88635956313e-06
-7.01676228468e-07
1.08981542469e-05
-2.68246113913e-06
1.58705628111e-05
-5.28923280034e-06
2.18234172584e-05
-8.45822154216e-06
2.87719644228e-05
-1.21326777959e-05
3.67354394095e-05
-1.62619224074e-05
4.57298401213e-05
-2.08003497327e-05
5.57761527858e-05
-2.57064301065e-05
6.68928830713e-05
-3.09416939955e-05
7.91033670299e-05
-3.64697613673e-05
9.24287007155e-05
-4.22553477697e-05
0.000106893562601
-4.8263347107e-05
0.000122520093688
-5.44578799598e-05
0.000139331831767
-6.08014503623e-05
0.000157348754234
-6.72540679457e-05
0.000176589423318
-7.37725069907e-05
0.00019706675973
-8.0309547685e-05
0.000218789243618
-8.68133606435e-05
0.000241756554739
-9.32269916817e-05
0.000265960089651
-9.94878887976e-05
0.000291379723153
-0.000105527595352
0.000317981286219
-0.000111271753049
0.000345715715414
-0.000116639608376
0.000374515218224
-0.000121545380724
0.000404293840958
-0.000125902950799
0.000434943108869
-0.000129623477205
-0.000132582619818
0.000466330893751
5.08175421135e-07
1.6132290538e-07
2.05943784308e-06
-4.65441164086e-07
4.67302656593e-06
-2.03114825917e-06
8.36127527656e-06
-4.38963310368e-06
1.31367065686e-05
-7.45685218927e-06
1.90075652169e-05
-1.11599867143e-05
2.59858651491e-05
-1.54355991233e-05
3.40814902904e-05
-2.02283777708e-05
4.33102315814e-05
-2.54898793087e-05
5.36869910207e-05
-3.11773182868e-05
6.52334764532e-05
-3.72522804824e-05
7.79710260841e-05
-4.36795288656e-05
9.19275033726e-05
-5.04257612662e-05
0.000107130312637
-5.74584572819e-05
0.000123611984336
-6.47446972423e-05
0.000141403884911
-7.22500500438e-05
0.000160540088954
-7.99374729237e-05
0.000181051997078
-8.77662505363e-05
0.000202970519857
-9.5691008883e-05
0.000226321321454
-0.000103660739826
0.00025112571943
-0.000111618007334
0.000277396164351
-0.000119498072138
0.000305136324299
-0.000127228428051
0.0003343360751
-0.000134728220299
0.000364971371431
-0.000141907733155
0.000396999778991
-0.000148668276671
0.000430356886517
-0.000154903174938
0.000464956577403
-0.000160502900886
0.000500686833211
-0.000165354122087
-0.000169300954093
0.0005374048582
6.07179504189e-07
-4.4504207385e-07
2.4349952727e-06
-2.29257958271e-06
5.4841767823e-06
-5.07913347892e-06
9.75192668002e-06
-8.65682254638e-06
1.5237765522e-05
-1.29415588939e-05
2.19401873338e-05
-1.78621172543e-05
2.98635428068e-05
-2.33579951623e-05
3.90130796493e-05
-2.93778588128e-05
4.94019167235e-05
-3.58779532135e-05
6.10451301488e-05
-4.28206643335e-05
7.3966361943e-05
-5.01729415754e-05
8.81914784986e-05
-5.79049065738e-05
0.000103754459029
-6.59883552749e-05
0.000120691090133
-7.43954155303e-05
0.000139043733508
-8.30971207688e-05
0.000158855435231
-9.20620983926e-05
0.000180173252193
-0.000101255209671
0.000203042881802
-0.000110636272409
0.0002275105968
-0.00012015878417
0.000253617972632
-0.000129768717553
0.000281403061075
-0.000139403365507
0.00031089451547
-0.000148990346947
0.000342112113171
-0.000158446661481
0.000375061192219
-0.000167677942337
0.00040973088869
-0.00017657798851
0.000446089766316
-0.000185027805617
0.000484082710176
-0.000192896488066
0.000523627320741
-0.000200047651922
0.000564611780083
-0.000206339169586
-0.000211578686771
0.000606889478887
6.98919166059e-07
-1.14347698817e-06
2.78177073734e-06
-4.37419511658e-06
6.22854830644e-06
-8.52433795061e-06
1.10207844392e-05
-1.34481741632e-05
1.71451371783e-05
-1.90645566506e-05
2.45906203655e-05
-2.53069565315e-05
3.33544918832e-05
-3.21207290958e-05
4.34383179771e-05
-3.94613036553e-05
5.48535557236e-05
-4.72922765571e-05
6.76167734384e-05
-5.55837222573e-05
8.1754881261e-05
-6.43103434143e-05
9.72998580473e-05
-7.34498847992e-05
0.000114293405459
-8.29813855826e-05
0.000132781550271
-9.28836594441e-05
0.000152818398202
-0.000103133614975
0.000174460903009
-0.000113704746074
0.000197771415234
-0.00012456549607
0.000222812667571
-0.000135677726545
0.000249649104963
-0.000146995127757
0.000278341719212
-0.000158461689803
0.000308948453281
-0.000170010231754
0.000341518430059
-0.000181560948028
0.000376091726334
-0.000193020236827
0.000412692638006
-0.000204279631744
0.000451328924886
-0.000215214733169
0.000491985287301
-0.000225684395085
0.000534619420962
-0.000235531053266
0.000579158870264
-0.000244587356666
0.00062549822403
-0.000252678679708
-0.000259573198326
0.000673492410027
7.82079651071e-07
-1.92459810282e-06
3.09125928465e-06
-6.6821008979e-06
6.88734105183e-06
-1.23188763444e-05
1.21362350203e-05
-1.86958901841e-05
1.8811775005e-05
-2.5738674214e-05
2.68943216801e-05
-3.3388643789e-05
3.63749355661e-05
-4.16001602249e-05
4.72525872917e-05
-5.03383775301e-05
5.95382608356e-05
-5.95770130425e-05
7.32513118028e-05
-6.92964312846e-05
8.84232343493e-05
-7.9481544088e-05
0.000105093553139
-9.01200386441e-05
0.000123313128397
-0.000101200421335
0.000143139829817
-0.000112710313565
0.000164641163138
-0.000124634557131
0.000187889882869
-0.000136953487768
0.000212965699869
-0.000149641031757
0.000239950769716
-0.000162662894399
0.000268930429564
-0.000175974611248
0.000299988094678
-0.000189519648155
0.000333205306298
-0.000203227440118
0.000368655421862
-0.000217011558367
0.000406402851971
-0.00023076794006
0.000446496174171
-0.000244373379192
0.000488965597149
-0.000257684393794
0.000533816366957
-0.00027053564281
0.000581025126608
-0.000282739885654
0.000630533767855
-0.000294096084692
0.00068224895585
-0.000304394273257
-0.000313361721462
0.000736037296025
8.53785690312e-07
-2.77778803963e-06
3.35606888212e-06
-9.1826932029e-06
7.44572245025e-06
-1.64067545501e-05
1.30734740202e-05
-2.43223374894e-05
2.0201575307e-05
-3.28652862296e-05
2.88026178892e-05
-4.19886171556e-05
3.88626523328e-05
-5.16589662683e-05
5.03792668288e-05
-6.18542063287e-05
6.33642099781e-05
-7.25609735322e-05
7.78408239855e-05
-8.37725024551e-05
9.38464068131e-05
-9.54863511721e-05
0.000111429182408
-0.000107702454597
0.000130650378692
-0.000120421009313
0.000151580904366
-0.000133640607359
0.000174302979447
-0.000147356156301
0.000198906592807
-0.000161556950842
0.000225490457989
-0.000176224516311
0.000254158119123
-0.000191330493521
0.000285018106806
-0.000206834312659
0.000318179192302
-0.000222680833817
0.000353749712127
-0.000238797846695
0.000391831353247
-0.000255093545414
0.000432517494945
-0.000271454100465
0.000475885224031
-0.00028774156233
0.000521992587813
-0.00030379191099
0.000570870462886
-0.000319413550109
0.000622517329477
-0.000334386973998
0.000676894545622
-0.000348473556625
0.000733926790699
-0.000361426604685
-0.000372936594513
0.000793501186468
9.1338440484e-07
-3.69019202793e-06
3.57115270206e-06
-1.18388702412e-05
7.89303262518e-06
-2.0726979869e-05
1.38156977459e-05
-3.02434545147e-05
2.12906967933e-05
-4.03387702571e-05
3.02842846893e-05
-5.09809942412e-05
4.07788831482e-05
-6.21523113257e-05
5.27718763244e-05
-7.38462755457e-05
6.62770389101e-05
-8.60651359453e-05
8.13227006002e-05
-9.88174792906e-05
9.79529951948e-05
-0.00011211584599
0.000116225674222
-0.000125974629391
0.000136213197473
-0.00014040788618
0.00015800026714
-0.00015542730434
0.000181684666146
-0.000171040025337
0.000207374489369
-0.000187246498566
0.000235188556169
-0.000204038140227
0.000265253132726
-0.000221394893274
0.000297701733964
-0.000239282553375
0.000332670773202
-0.000257649869783
0.000370298547473
-0.000276425405423
0.000410718994045
-0.000295514164035
0.000454059050134
-0.000314794155496
0.000500430367592
-0.000334113060135
0.000549924057922
-0.000353285630729
0.000602601299963
-0.00037209115221
0.000658487258317
-0.000390272939987
0.000717563806572
-0.000407550247393
0.000779774898721
-0.000423638277097
-0.000438200830373
0.000845038714551
9.59176626612e-07
-4.64876170236e-06
3.73327013488e-06
-1.4611071714e-05
8.22358560743e-06
-2.52154443789e-05
1.43540754192e-05
-3.63724446269e-05
2.20677443335e-05
-4.80509052373e-05
3.13257547587e-05
-6.02377157782e-05
4.2108399402e-05
-7.29337081924e-05
5.44140261948e-05
-8.61509035705e-05
6.82595527763e-05
-9.9909662489e-05
8.36790740558e-05
-0.000114236238296
0.000100724332185
-0.000129160288977
0.000119463053295
-0.000144712759859
0.000139979431633
-0.00016092357999
0.000162372211011
-0.000177819616241
0.00018675510279
-0.000195422330866
0.000213254554605
-0.000213745579801
0.000242009948025
-0.000232793017773
0.000273170827326
-0.000252555500537
0.00030689669305
-0.000273007969364
0.000343353126146
-0.000294106176217
0.000382710770816
-0.000315782718948
0.000425139337138
-0.00033794280031
0.000470804606038
-0.000360459222528
0.000519858876731
-0.000383167532358
0.000572434230883
-0.000405860989921
0.0006286297537
-0.000428286700576
0.000688500532761
-0.000450143961747
0.000752048497937
-0.000471098618744
0.000819231159272
-0.000490821107814
-0.000508967752503
0.00088999744735
9.91398585499e-07
-5.63923023111e-06
3.84140508497e-06
-1.74593815625e-05
8.43570226328e-06
-2.98081498529e-05
1.46877423871e-05
-4.26228234858e-05
2.25332735789e-05
-5.58949833027e-05
3.19302608941e-05
-6.96334056486e-05
4.28582235265e-05
-8.3860492189e-05
5.53175703953e-05
-9.86092412614e-05
6.93292150794e-05
-0.000113920381304
8.4933612487e-05
-0.000129839850384
0.000102190463143
-0.000146416385795
0.000121177665357
-0.000163699325936
0.000141991121006
-0.000181736389371
0.000164743549055
-0.000200571509973
0.000189564321007
-0.000220242528013
0.000216598038493
-0.000240778839193
0.000246004276571
-0.000262198733162
0.000277955743951
-0.000284506584995
0.000312637765943
-0.000307689519215
0.000350245594367
-0.000331713730762
0.000390983190403
-0.000356519953637
0.000435058712172
-0.000382018199734
0.000482680886135
-0.000408081244593
0.000534050456071
-0.000434537137599
0.000589350263084
-0.000461160856116
0.000648729044553
-0.000487665859089
0.000712282249537
-0.000513697356298
0.000780030514547
-0.000538847148789
0.000851923789396
-0.000562715279758
-0.000584964219307
0.000927919680053
1.00942187957e-06
-6.64809022652e-06
3.8960465148e-06
-2.03443239438e-05
8.53213089612e-06
-3.44425775276e-05
1.48225126022e-05
-4.89117828012e-05
2.26983913712e-05
-6.37694506861e-05
3.21157876932e-05
-7.90494720965e-05
4.30548620012e-05
-9.47983663669e-05
5.55189030129e-05
-0.000111072203501
6.95335258346e-05
-0.000127934021814
8.5145696373e-05
-0.000145451153108
0.000102423250035
-0.000163693116692
0.000121453918813
-0.000182729266428
0.000142345105554
-0.000202626853098
0.000165222847432
-0.00022344859948
0.000190231681596
-0.000245250703412
0.00021753348809
-0.00026808004834
0.000247307306935
-0.000291971942463
0.000279747927512
-0.000316946667694
0.000315065594382
-0.000343006622617
0.000353484069289
-0.00037013177722
0.000395240097067
-0.000398275533108
0.00044058022927
-0.000427358102162
0.000489758658596
-0.000457259500655
0.000543030148014
-0.000487808656629
0.000600640306709
-0.000518771312594
0.000662806662653
-0.000549832382457
0.00072968671865
-0.00058057823293
0.000801331742149
-0.000610492866863
0.000877653247787
-0.000639037480541
-0.000665845816862
0.000958534429314
1.0138044453e-06
-7.66125382133e-06
3.89899345804e-06
-2.32281316922e-05
8.51803295608e-06
-3.9060243895e-05
1.47699374913e-05
-5.51620808508e-05
2.2582788624e-05
-7.15805322581e-05
3.19123014485e-05
-8.83772693403e-05
4.2740490369e-05
-0.000105624744703
5.50740543359e-05
-0.000123404142925
6.89437298631e-05
-0.000141802026426
8.44028397751e-05
-0.000160908833377
0.000101527178408
-0.000180815931417
0.000120413643283
-0.000201614468534
0.000141180619202
-0.000223392389172
0.000163966405787
-0.000246233255709
0.000188930032071
-0.000270212926653
0.000216249254065
-0.000295398243441
0.000246121751987
-0.000321843053643
0.000278762541066
-0.00034958652444
0.000314405531175
-0.000378648242076
0.000353300344312
-0.000409025779999
0.000395714395754
-0.000440688316755
0.000441929182738
-0.000473572350297
0.000492242747959
-0.000507572021826
0.000546963784458
-0.000542529610519
0.000606409928375
-0.000578216837897
0.000670888184722
-0.000614311188899
0.000740663695302
-0.000650353483943
0.000815867832007
-0.000685697130009
0.000896358575823
-0.000719527432012
-0.000751233972513
0.000981747216411
1.00539263816e-06
-8.66621824243e-06
3.85420594843e-06
-2.60765395635e-05
8.40369747656e-06
-4.36090345209e-05
1.45485642752e-05
-6.13056789382e-05
2.22156579977e-05
-7.92463059404e-05
3.13622715726e-05
-9.75219649098e-05
4.19725762524e-05
-0.000116233400283
5.40577384319e-05
-0.000135487323364
6.76529403635e-05
-0.000155395681193
8.28182315809e-05
-0.000176072285578
9.96359665611e-05
-0.000197632279465
0.000118212208555
-0.000220189051759
0.000138674421699
-0.000243853392033
0.000161173110048
-0.00026873038222
0.000185879421071
-0.000294918141827
0.000212987042285
-0.000322504363015
0.000242709497556
-0.000351564488963
0.000275282081337
-0.000382157631052
0.000310958820926
-0.000414324025808
0.000350014444505
-0.000448080041633
0.000392741465621
-0.000483414510464
0.00043945276534
-0.000520282559076
0.0004904801528
-0.00055859901042
0.000546179382232
-0.000598228351974
0.000606930736738
-0.000638968259379
0.000673142121337
-0.000680522835517
0.000745232930153
-0.000722443959372
0.000823540362269
-0.000764004143312
0.00090797530512
-0.000803960424783
-0.000840746621307
0.000997491877995
9.85088103182e-07
-9.65201249584e-06
3.77051157907e-06
-2.88638599248e-05
8.20671242162e-06
-4.80465390403e-05
1.41860546232e-05
-6.72862372542e-05
2.16380300148e-05
-8.66984576425e-05
3.05216872489e-05
-0.000106405956105
4.08255884416e-05
-0.00012653708998
5.25640152997e-05
-0.00014722593998
6.57777793139e-05
-0.000168609332645
8.05315304447e-05
-0.00019082629668
9.69147549366e-05
-0.000214015634429
0.000115040171483
-0.00023831489435
0.000135044561992
-0.000263858132504
0.000157087755346
-0.000290774116741
0.000181353249541
-0.000319184141814
0.000208047542577
-0.000349199290167
0.000237400395142
-0.000380917956222
0.000269664091506
-0.00041442209309
0.000305113267667
-0.000449774025969
0.0003440438924
-0.000487011587051
0.000386772365784
-0.000526144413355
0.000433635490009
-0.000567147085786
0.000484989411811
-0.000609955398747
0.000541215027792
-0.000654455773917
0.000602721809857
-0.000700478989706
0.000669972475337
-0.000747775211254
0.000743506055971
-0.0007959816895
0.000823962283522
-0.000844460796226
0.000911728874554
-0.000891727921766
-0.00093393895572
0.00100492014936
9.6441204732e-07
-1.06176307955e-05
3.66498757575e-06
-3.15677035715e-05
7.94722371434e-06
-5.23320150249e-05
1.37110732471e-05
-7.30522802212e-05
2.08888428519e-05
-9.387826747e-05
2.94440542786e-05
-0.000114962713904
3.93679456911e-05
-0.00013646270502
5.0679123757e-05
-0.000158538725374
6.34217537709e-05
-0.000181353729085
7.76653096386e-05
-0.000205071640124
9.35039720073e-05
-0.000229856194336
0.000111056475137
-0.000255869469301
0.000130466406237
-0.000283270053127
0.000151901618149
-0.000312211577753
0.0001755554032
-0.000342839946797
0.00020164539692
-0.000375291650468
0.000230415169126
-0.000409689874409
0.000262132527277
-0.00044614203056
0.000297090960396
-0.000484734734918
0.000335606572632
-0.000525530338261
0.00037801965463
-0.000568560041408
0.000424688561701
-0.000613820046877
0.000475991680174
-0.000661261611759
0.000532317000668
-0.00071078643331
0.000594067744512
-0.000762233172003
0.000661656750238
-0.00081537054303
0.000735541467933
-0.000869870101071
0.000816261570237
-0.000925184297861
0.000904503298667
-0.000979973580806
0.00100081504891
-0.00103025837032
-7.58624452781e-05
2.07416981114e-07
-7.60150745996e-05
1.51089577846e-07
-7.61256911718e-05
1.06346095892e-07
-7.61997882551e-05
7.25929549319e-08
-7.62541662918e-05
4.92998706064e-08
-7.62915860584e-05
3.57711322008e-08
-7.6328712807e-05
3.15273383989e-08
-7.63667330123e-05
3.59861796534e-08
-7.64215822701e-05
4.87856656159e-08
-7.64936102438e-05
6.94117059464e-08
-7.65977963956e-05
9.76146044511e-08
-7.67340032845e-05
1.3298751129e-07
-7.69161476674e-05
1.7537014366e-07
-7.71443134921e-05
2.24444337613e-07
-7.74315217976e-05
2.80176063615e-07
-7.77778072673e-05
3.42342584784e-07
-7.81957065819e-05
4.11004587888e-07
-7.86855429882e-05
4.86042563993e-07
-7.92594384212e-05
5.67582490767e-07
-7.99185058334e-05
6.555986248e-07
-8.06743588834e-05
7.50279773086e-07
-8.15292182831e-05
8.51681408886e-07
-8.24941429846e-05
9.60037326334e-07
-8.35727071147e-05
1.07546892631e-06
-8.47752340886e-05
1.19824689553e-06
-8.61068045632e-05
1.3285228651e-06
-8.75773606257e-05
1.46659839705e-06
-8.91928349594e-05
1.61265617866e-06
-9.09631833403e-05
1.76697436325e-06
-9.28953726791e-05
1.9297124275e-06
-9.49998214405e-05
2.10115141683e-06
-9.72832246876e-05
2.28140709132e-06
-9.97570830307e-05
2.47068673183e-06
-0.000102427652436
2.66904722947e-06
-0.000105307543577
2.87659114837e-06
-0.000108402037188
3.09326585234e-06
-0.000111724530311
3.31904370117e-06
-0.000115279134209
3.55371238435e-06
-0.000119079701899
3.79708912714e-06
-0.000123128732345
4.04875171914e-06
-0.000127440487007
4.30829766663e-06
-0.000132015249057
4.57505772254e-06
-0.00013686675231
4.84836089399e-06