/*--------------------------------*- C++ -*----------------------------------*\
| =========                 |                                                 |
| \\      /  F ield         | OpenFOAM: The Open Source CFD Toolbox           |
|  \\    /   O peration     | Version:  v1912                                 |
|   \\  /    A nd           | Website:  www.openfoam.com                      |
|    \\/     M anipulation  |                                                 |
\*---------------------------------------------------------------------------*/
FoamFile
{
    version     2.0;
    format      ascii;
    class       volVectorField;
    location    "183";
    object      U;
}
// * * * * * * * * * * * * * * * * * * * * * * * * * * * * * * * * * * * * * //

dimensions      [0 1 -1 0 0 0 0];


internalField   nonuniform List<vector> 
22000
(
(-3.34808600355e-07 2.0791182442e-06 0)
(-2.02058520483e-06 5.5447440118e-06 0)
(-5.34962387536e-06 8.39866081211e-06 0)
(-1.00140754557e-05 1.07762381546e-05 0)
(-1.57513052917e-05 1.27480319294e-05 0)
(-2.23630659899e-05 1.43650997551e-05 0)
(-2.96870956667e-05 1.56676113893e-05 0)
(-3.75765289343e-05 1.66883225327e-05 0)
(-4.58969470402e-05 1.74552940799e-05 0)
(-5.45260663341e-05 1.79930552733e-05 0)
(-6.33534734148e-05 1.83240896442e-05 0)
(-7.22796493475e-05 1.84689796384e-05 0)
(-8.12155681088e-05 1.84473480884e-05 0)
(-9.00818928238e-05 1.8277526408e-05 0)
(-9.88088498509e-05 1.79773486423e-05 0)
(-0.000107335426377 1.75635379724e-05 0)
(-0.000115609412005 1.70525462751e-05 0)
(-0.000123586487884 1.6459729937e-05 0)
(-0.000131230574677 1.5800304594e-05 0)
(-0.000138512958463 1.50882894743e-05 0)
(-0.000145412713412 1.4337754738e-05 0)
(-0.000151914811476 1.3561480028e-05 0)
(-0.000158011235166 1.27722276036e-05 0)
(-0.000163699952681 1.19814563541e-05 0)
(-0.000168985088128 1.12004643686e-05 0)
(-0.000173876093126 1.04391548543e-05 0)
(-0.000178387343557 9.70691666786e-06 0)
(-0.000182537605259 9.01147384886e-06 0)
(-0.000186349572414 8.36012231477e-06 0)
(-0.000189835337452 7.75954754877e-06 0)
(-1.60014264486e-07 5.77267566496e-06 0)
(-1.77080970618e-06 1.57786144921e-05 0)
(-4.91187375942e-06 2.4198879292e-05 0)
(-9.3512840364e-06 3.13145594876e-05 0)
(-1.4864521794e-05 3.72570530351e-05 0)
(-2.12515225063e-05 4.21374455647e-05 0)
(-2.83376902957e-05 4.60541740752e-05 0)
(-3.59632388052e-05 4.90959067434e-05 0)
(-4.39816574308e-05 5.13439327013e-05 0)
(-5.22592011972e-05 5.28734149265e-05 0)
(-6.06753704986e-05 5.37548691553e-05 0)
(-6.91218132294e-05 5.40545812528e-05 0)
(-7.75024105812e-05 5.38355766274e-05 0)
(-8.57319906697e-05 5.31575655166e-05 0)
(-9.37367337621e-05 5.20777648659e-05 0)
(-0.00010145262087 5.06505297631e-05 0)
(-0.000108826068645 4.89281971523e-05 0)
(-0.000115812219166 4.69604247857e-05 0)
(-0.000122376120065 4.47951839926e-05 0)
(-0.000128490422431 4.24778681304e-05 0)
(-0.000134136935199 4.00523183308e-05 0)
(-0.000139304421294 3.75599336157e-05 0)
(-0.000143989460456 3.50403424382e-05 0)
(-0.000148195776869 3.25308462537e-05 0)
(-0.000151934081082 3.00666557933e-05 0)
(-0.0001552220896 2.76806736603e-05 0)
(-0.000158083778567 2.54031353147e-05 0)
(-0.000160547238993 2.32607436301e-05 0)
(-0.000162637723181 2.12790127939e-05 0)
(-0.000164267268956 1.94862453272e-05 0)
(-1.71727944188e-07 8.9419376968e-06 0)
(-1.73566396019e-06 2.46814752656e-05 0)
(-4.69462073044e-06 3.80814909253e-05 0)
(-8.81966638537e-06 4.94420236675e-05 0)
(-1.38846029582e-05 5.89104608054e-05 0)
(-1.96885414745e-05 6.66321539359e-05 0)
(-2.60542125481e-05 7.27484942022e-05 0)
(-3.28188159898e-05 7.73961712076e-05 0)
(-3.98328968166e-05 8.07061848657e-05 0)
(-4.69601534898e-05 8.28040444362e-05 0)
(-5.40779414806e-05 8.38093999853e-05 0)
(-6.10764029226e-05 8.38366286774e-05 0)
(-6.7858639058e-05 8.29946651611e-05 0)
(-7.4339460594e-05 8.1387683659e-05 0)
(-8.04458214207e-05 7.91149669032e-05 0)
(-8.61153034441e-05 7.62716164114e-05 0)
(-9.12969362517e-05 7.29483470754e-05 0)
(-9.59492944864e-05 6.92321896018e-05 0)
(-0.000100041538895 6.52061499401e-05 0)
(-0.000103552049129 6.09500061619e-05 0)
(-0.000106468770844 5.65396007621e-05 0)
(-0.000108788402999 5.2047911199e-05 0)
(-0.000110516128976 4.75437928107e-05 0)
(-0.000111666074508 4.30932660996e-05 0)
(-0.000112260072991 3.87584542229e-05 0)
(-0.00011232898251 3.45981685645e-05 0)
(-0.000111914647784 3.06664878324e-05 0)
(-0.000111058905505 2.70116121577e-05 0)
(-0.000109780565271 2.36798779524e-05 0)
(-0.000107759162527 2.0726681335e-05 0)
(-1.58703200209e-07 1.18835310678e-05 0)
(-1.60025251421e-06 3.26624759731e-05 0)
(-4.2466972529e-06 5.02087220958e-05 0)
(-7.85974892076e-06 6.49382377922e-05 0)
(-1.21953764062e-05 7.70551589763e-05 0)
(-1.70435203068e-05 8.67595280913e-05 0)
(-2.22218849006e-05 9.42460971224e-05 0)
(-2.75650956131e-05 9.97038207573e-05 0)
(-3.29229406683e-05 0.000103314671042 0)
(-3.81595845333e-05 0.000105253832764 0)
(-4.31538178395e-05 0.000105689032602 0)
(-4.77979344004e-05 0.000104781204027 0)
(-5.19978396495e-05 0.000102684111874 0)
(-5.56718016006e-05 9.95452506076e-05 0)
(-5.87508039571e-05 9.55055677599e-05 0)
(-6.11772389727e-05 9.07004716728e-05 0)
(-6.29055039304e-05 8.52595055961e-05 0)
(-6.39006562815e-05 7.93074250515e-05 0)
(-6.41391183774e-05 7.29636523574e-05 0)
(-6.36075986288e-05 6.63433947086e-05 0)
(-6.23034378065e-05 5.95569590287e-05 0)
(-6.02342792559e-05 5.27106351289e-05 0)
(-5.74179202294e-05 4.59060798108e-05 0)
(-5.38808443192e-05 3.92408040949e-05 0)
(-4.96603078025e-05 3.28075608508e-05 0)
(-4.48055395324e-05 2.66944624142e-05 0)
(-3.93831270598e-05 2.09834937601e-05 0)
(-3.34547661707e-05 1.57478020483e-05 0)
(-2.70227199968e-05 1.10581953529e-05 0)
(-1.93774627275e-05 7.00377726444e-06 0)
(-1.4055208659e-07 1.43543230545e-05 0)
(-1.36248225233e-06 3.91903475371e-05 0)
(-3.50331224974e-06 5.98762111031e-05 0)
(-6.32389427901e-06 7.69565916339e-05 0)
(-9.56668849489e-06 9.07048227465e-05 0)
(-1.30142286809e-05 0.000101385365632 0)
(-1.6478882345e-05 0.000109253446145 0)
(-1.979250481e-05 0.000114555383579 0)
(-2.28040428655e-05 0.000117527445091 0)
(-2.53785619996e-05 0.000118396590668 0)
(-2.73969513983e-05 0.000117379763887 0)
(-2.87546561174e-05 0.000114685045021 0)
(-2.93615028654e-05 0.000110511271606 0)
(-2.91404269355e-05 0.000105049365772 0)
(-2.80277258642e-05 9.84821477087e-05 0)
(-2.59718313143e-05 9.0985654941e-05 0)
(-2.29339129466e-05 8.27290296156e-05 0)
(-1.88867254449e-05 7.38757131164e-05 0)
(-1.38154149256e-05 6.45832713351e-05 0)
(-7.71652425832e-06 5.50043994585e-05 0)
(-5.98975947168e-07 4.52865756292e-05 0)
(7.51711927466e-06 3.55728357145e-05 0)
(1.65996046485e-05 2.60012168202e-05 0)
(2.66041949233e-05 1.67051841452e-05 0)
(3.74744413265e-05 7.81324184889e-06 0)
(4.91377001658e-05 -5.5154737831e-07 0)
(6.14937624945e-05 -8.27371602507e-06 0)
(7.44536789718e-05 -1.52495308742e-05 0)
(8.80470064856e-05 -2.13779119527e-05 0)
(0.000103572887868 -2.65259076334e-05 0)
(-1.0968487191e-07 1.62355738136e-05 0)
(-1.00358731406e-06 4.39276081542e-05 0)
(-2.42531556353e-06 6.65469197708e-05 0)
(-4.14059560972e-06 8.47731441502e-05 0)
(-5.88378087059e-06 9.89572091398e-05 0)
(-7.43339770896e-06 0.000109435091351 0)
(-8.59908823859e-06 0.000116528138547 0)
(-9.21182657661e-06 0.00012054414161 0)
(-9.12152619818e-06 0.000121776477649 0)
(-8.19552278819e-06 0.000120505522291 0)
(-6.31805541993e-06 0.00011699823619 0)
(-3.38854166825e-06 0.000111509992734 0)
(6.78546713055e-07 0.000104284482451 0)
(5.95529666813e-06 9.55556946684e-05 0)
(1.24998309049e-05 8.55480050425e-05 0)
(2.03577673721e-05 7.4478058115e-05 0)
(2.95612153713e-05 6.25549072464e-05 0)
(4.01299566265e-05 4.99816591373e-05 0)
(5.20702407312e-05 3.69555425632e-05 0)
(6.53754751901e-05 2.36691852115e-05 0)
(8.00252966083e-05 1.03104648356e-05 0)
(9.59854664306e-05 -2.93666341885e-06 0)
(0.000113207243536 -1.58926331901e-05 0)
(0.000131629558325 -2.83818626702e-05 0)
(0.000151174438784 -4.02335531032e-05 0)
(0.000171740360875 -5.12817876593e-05 0)
(0.000193185270774 -6.13692609253e-05 0)
(0.000215385980653 -7.03534882436e-05 0)
(0.00023842169788 -7.80944999859e-05 0)
(0.000264437887334 -8.44007863215e-05 0)
(-7.15306629088e-08 1.74077562029e-05 0)
(-5.26324931332e-07 4.65376375016e-05 0)
(-9.98103619582e-07 6.96893982492e-05 0)
(-1.26644457624e-06 8.76801601541e-05 0)
(-1.06502736047e-06 0.000100943895527 0)
(-1.74597868019e-07 0.000109892050576 0)
(1.59360092979e-06 0.000114914848694 0)
(4.40578059277e-06 0.000116382989933 0)
(8.40831000365e-06 0.000114647453397 0)
(1.37294190829e-05 0.000110041566266 0)
(2.04802349924e-05 0.000102881286248 0)
(2.8756633876e-05 9.34677720033e-05 0)
(3.86395485597e-05 8.20879420133e-05 0)
(5.01965939878e-05 6.90172048412e-05 0)
(6.34814649029e-05 5.45201028604e-05 0)
(7.85353067526e-05 3.88529514783e-05 0)
(9.53853781709e-05 2.22644101575e-05 0)
(0.000114046073541 4.99782786054e-06 0)
(0.000134517154717 -1.27084314469e-05 0)
(0.000156784328657 -3.06191305863e-05 0)
(0.000180817184242 -4.85022936245e-05 0)
(0.000206569763382 -6.61278533719e-05 0)
(0.000233978817551 -8.32684494337e-05 0)
(0.000262963205282 -9.96985776997e-05 0)
(0.000293422458958 -0.000115195717782 0)
(0.000325224257195 -0.00012954064125 0)
(0.000358175017638 -0.000142522734252 0)
(0.00039210871943 -0.000153948932572 0)
(0.00042718088995 -0.000163628128259 0)
(0.000466694041612 -0.00017129154871 0)
(-1.98130539015e-08 1.77659268506e-05 0)
(9.21368729069e-08 4.6723275373e-05 0)
(8.19316307263e-07 6.88343683204e-05 0)
(2.36217679106e-06 8.50545355544e-05 0)
(4.97845444125e-06 9.59040474253e-05 0)
(8.87840046284e-06 0.000101871344188 0)
(1.4243760547e-05 0.000103415469888 0)
(2.12337327376e-05 0.000100968758885 0)
(2.99876246164e-05 9.49374573865e-05 0)
(4.06270253755e-05 8.5704777168e-05 0)
(5.32572088293e-05 7.3632082555e-05 0)
(6.7969227793e-05 5.90624837117e-05 0)
(8.48402120548e-05 4.23222863344e-05 0)
(0.000103935044998 2.37247221147e-05 0)
(0.000125305485113 3.57142853534e-06 0)
(0.000148991389909 -1.7843955502e-05 0)
(0.000175018941634 -4.02345592494e-05 0)
(0.000203401267705 -6.3317125525e-05 0)
(0.000234136186064 -8.68111663633e-05 0)
(0.000267205861179 -0.0001104363988 0)
(0.000302574716512 -0.000133912552971 0)
(0.000340187959063 -0.000156957602261 0)
(0.000379969873462 -0.000179288466953 0)
(0.000421825428455 -0.000200620037636 0)
(0.000465633213676 -0.000220666598569 0)
(0.000511227142841 -0.000239141988017 0)
(0.00055835517887 -0.000255766734326 0)
(0.000606800787632 -0.000270281473413 0)
(0.000656822987775 -0.000282427256372 0)
(0.00071325492426 -0.000291833912554 0)
(4.08228231973e-08 1.72118043897e-05 0)
(8.48078487944e-07 4.42167767858e-05 0)
(3.03241988089e-06 6.35698912071e-05 0)
(6.76224739772e-06 7.63611782026e-05 0)
(1.22751396403e-05 8.31973752704e-05 0)
(1.97636382408e-05 8.46420290178e-05 0)
(2.93962479481e-05 8.12196320899e-05 0)
(4.13202671909e-05 7.34194599332e-05 0)
(5.566457407e-05 6.16974526094e-05 0)
(7.25421068149e-05 4.64804199139e-05 0)
(9.20517711245e-05 2.81685570148e-05 0)
(0.000114280567743 7.14022303606e-06 0)
(0.000139303931447 -1.62452498232e-05 0)
(0.000167187251347 -4.16427415959e-05 0)
(0.000197984746273 -6.87187071734e-05 0)
(0.000231740368262 -9.71465354223e-05 0)
(0.000268485408106 -0.000126604227275 0)
(0.000308238596422 -0.000156770238191 0)
(0.000351002972995 -0.000187321798476 0)
(0.000396764970597 -0.000217931525376 0)
(0.0004454907571 -0.000248266687483 0)
(0.000497124796551 -0.000277986809213 0)
(0.000551586685265 -0.00030674420084 0)
(0.000608769476305 -0.000334182684574 0)
(0.000668535511555 -0.000359939020754 0)
(0.000730689081676 -0.000383643315278 0)
(0.000794912183729 -0.000404928055104 0)
(0.000860928569467 -0.000423446556418 0)
(0.000929137403431 -0.000438850423648 0)
(0.00100632726196 -0.000450638536207 0)
(1.15454136238e-07 1.56688908554e-05 0)
(1.75415776276e-06 3.88139635493e-05 0)
(5.65375884309e-06 5.35894144101e-05 0)
(1.19421845294e-05 6.12127236915e-05 0)
(2.0823501013e-05 6.23734664018e-05 0)
(3.24631880936e-05 5.7704666433e-05 0)
(4.70097298785e-05 4.77890097712e-05 0)
(6.45936960072e-05 3.31642566462e-05 0)
(8.53303755004e-05 1.432675573e-05 0)
(0.000109322731822 -8.26283040006e-06 0)
(0.000136663681873 -3.41753102557e-05 0)
(0.000167438257013 -6.30067814839e-05 0)
(0.000201723913343 -9.43743085595e-05 0)
(0.000239591749883 -0.000127909652685 0)
(0.000281104987008 -0.000163255083323 0)
(0.000326319324091 -0.000200057451399 0)
(0.0003752799194 -0.000237964489393 0)
(0.000428020625363 -0.000276619515153 0)
(0.000484560033192 -0.000315658544202 0)
(0.000544899161993 -0.000354705926141 0)
(0.000609017304674 -0.000393372654852 0)
(0.000676868020863 -0.00043125327625 0)
(0.00074837526282 -0.000467925848438 0)
(0.000823433345712 -0.000502950304034 0)
(0.000901896800759 -0.000535869661116 0)
(0.000983543363566 -0.000566210293959 0)
(0.0010679874523 -0.00059349268593 0)
(0.00115488622183 -0.000617257014463 0)
(0.00124481321548 -0.00063703784543 0)
(0.00134699381156 -0.000652167593375 0)
(1.99270036173e-07 1.30774296008e-05 0)
(2.79799633378e-06 3.03684646079e-05 0)
(8.66104404493e-06 3.86883037691e-05 0)
(1.78608559962e-05 3.93685305685e-05 0)
(3.05530792293e-05 3.31732753534e-05 0)
(4.68662014524e-05 2.07946899079e-05 0)
(6.69218547367e-05 2.86203302956e-06 0)
(9.08292608685e-05 -2.00510633732e-05 0)
(0.000118687692101 -4.74209283802e-05 0)
(0.000150589855432 -7.87665546322e-05 0)
(0.000186624521226 -0.000113643198997 0)
(0.000226878535498 -0.000151634585685 0)
(0.000271436947417 -0.000192346465905 0)
(0.000320383794762 -0.000235398892411 0)
(0.000373800126808 -0.000280420112312 0)
(0.000431763659332 -0.000327039221786 0)
(0.000494344943782 -0.000374880696755 0)
(0.000561605647891 -0.00042355775341 0)
(0.000633593434322 -0.000472667866924 0)
(0.000710338507739 -0.000521787204624 0)
(0.000791847452051 -0.000570467576541 0)
(0.000878098388905 -0.000618232381999 0)
(0.000969035179917 -0.000664575532356 0)
(0.00106456388786 -0.000708959317556 0)
(0.00116454469951 -0.000750814945243 0)
(0.00126874256975 -0.000789542469998 0)
(0.00137670368959 -0.000824523042263 0)
(0.00148801120707 -0.000855152015882 0)
(0.00160345516967 -0.000880813788044 0)
(0.00173521883741 -0.000900633138974 0)
(2.9544997592e-07 9.40772735943e-06 0)
(3.97708995711e-06 1.8820178803e-05 0)
(1.20274657789e-05 1.8802057697e-05 0)
(2.44533884187e-05 1.07801698431e-05 0)
(4.13463778828e-05 -4.42044890813e-06 0)
(6.27876911214e-05 -2.60636151359e-05 0)
(8.88656009286e-05 -5.34896339886e-05 0)
(0.000119664173295 -8.6105978559e-05 0)
(0.000155265329347 -0.000123378924573 0)
(0.000195752639464 -0.000164824299731 0)
(0.000241214087755 -0.000209998510532 0)
(0.000291743851545 -0.00025848900395 0)
(0.000347442112161 -0.000309905429004 0)
(0.000408415281982 -0.000363870282556 0)
(0.000474773451462 -0.000420010536485 0)
(0.000546629164107 -0.000477948721992 0)
(0.00062409274538 -0.000537295314601 0)
(0.000707269319977 -0.000597640558755 0)
(0.000796252547889 -0.000658547975123 0)
(0.000891119324146 -0.000719547314083 0)
(0.000991922548172 -0.000780129692796 0)
(0.00109868328389 -0.000839742222893 0)
(0.00121138327734 -0.000897785515173 0)
(0.00132996207931 -0.000953610504293 0)
(0.00145430364326 -0.00100651779872 0)
(0.00158417371206 -0.00105575673674 0)
(0.00171905924104 -0.00110053815531 0)
(0.00185846617464 -0.0011400765742 0)
(0.00200343696524 -0.00117356717373 0)
(0.00216967562698 -0.00119988093094 0)
(3.98975019844e-07 4.65530276117e-06 0)
(5.26851468716e-06 4.18721968267e-06 0)
(1.56985647509e-05 -6.00378583453e-06 0)
(3.16138733406e-05 -2.44213835944e-05 0)
(5.30262553103e-05 -5.01987588761e-05 0)
(7.99607850372e-05 -8.25761075471e-05 0)
(0.000112466837967 -0.000120884260355 0)
(0.000150600689835 -0.000164532895713 0)
(0.000194426990093 -0.00021299913804 0)
(0.000244022855247 -0.00026581615205 0)
(0.000299480637691 -0.000322561310235 0)
(0.000360909256446 -0.000382844745931 0)
(0.000428433602757 -0.000446297876941 0)
(0.000502194029934 -0.000512562281665 0)
(0.00058234317424 -0.00058127882602 0)
(0.000669043729353 -0.000652076990425 0)
(0.000762462820568 -0.000724564827989 0)
(0.000862767698757 -0.000798318973174 0)
(0.00097011811568 -0.000872875768747 0)
(0.00108465936953 -0.000947722371955 0)
(0.00120651275811 -0.0010222895855 0)
(0.0013357659403 -0.00109594475468 0)
(0.00147246304261 -0.00116798712045 0)
(0.00161659817132 -0.00123764333785 0)
(0.00176810329274 -0.00130406502543 0)
(0.00192677111838 -0.00136632595116 0)
(0.00209204127986 -0.00142343434855 0)
(0.00226334048394 -0.00147438385939 0)
(0.00244200374669 -0.00151813721785 0)
(0.00264784167712 -0.00155326195206 0)
(5.11251175887e-07 -1.15197857874e-06 0)
(6.65540784863e-06 -1.34213993459e-05 0)
(1.96113787438e-05 -3.55190319877e-05 0)
(3.92114671335e-05 -6.59109725401e-05 0)
(6.5372818092e-05 -0.000103713670871 0)
(9.80557951984e-05 -0.000148168904014 0)
(0.000137266724001 -0.000198623188254 0)
(0.000183032933704 -0.000254513250479 0)
(0.000235403514177 -0.00031535127714 0)
(0.000294453569659 -0.000380711163628 0)
(0.000360286729016 -0.000450213646492 0)
(0.000433035882249 -0.000523512856304 0)
(0.000512862030737 -0.000600282081459 0)
(0.000599952944002 -0.000680200789045 0)
(0.000694519321596 -0.000762941094473 0)
(0.000796791455829 -0.000848155183576 0)
(0.000907012734557 -0.000935462585674 0)
(0.00102543383138 -0.00102443809208 0)
(0.00115230379403 -0.0011146001138 0)
(0.00128786093928 -0.00120539949197 0)
(0.00143232171546 -0.00129620953524 0)
(0.00158586772223 -0.00138631652967 0)
(0.00174863305649 -0.00147491255884 0)
(0.00192069726761 -0.0015610888208 0)
(0.00210206944627 -0.00164383075463 0)
(0.00229259631633 -0.00172201265199 0)
(0.0024916942489 -0.00179440763494 0)
(0.00269871452036 -0.00185974741307 0)
(0.00291531412888 -0.00191671675225 0)
(0.00316601758937 -0.00196353002929 0)
(6.27038180247e-07 -7.95912425343e-06 0)
(8.10582079444e-06 -3.38176886707e-05 0)
(2.36852068726e-05 -6.94075829444e-05 0)
(4.70893839355e-05 -0.000113195589506 0)
(7.8128071109e-05 -0.000164311611128 0)
(0.000116691397715 -0.000222028779947 0)
(0.000162740162308 -0.000285738269289 0)
(0.000216273396261 -0.000354931796322 0)
(0.000277328153587 -0.000429183449975 0)
(0.0003459836761 -0.000508133415849 0)
(0.000422363439402 -0.000591470133817 0)
(0.000506635073841 -0.000678914772573 0)
(0.000599008598031 -0.000770204325341 0)
(0.000699734157526 -0.000865076688734 0)
(0.000809097564999 -0.000963254505967 0)
(0.000927415881978 -0.00106443049782 0)
(0.00105503009899 -0.00116825193 0)
(0.00119229790931 -0.00127430607901 0)
(0.00133958351482 -0.00138210546421 0)
(0.00149724657548 -0.00149107379778 0)
(0.00166562863472 -0.00160053258644 0)
(0.00184503740126 -0.00170968863014 0)
(0.00203573093708 -0.00181762335257 0)
(0.00223790651961 -0.00192328355639 0)
(0.00245168556881 -0.00202547359772 0)
(0.00267700774338 -0.00212284640247 0)
(0.00291329382332 -0.00221390967149 0)
(0.00315982509884 -0.00229709311464 0)
(0.00341860733475 -0.00237076009738 0)
(0.00371948862022 -0.00243272804828 0)
(7.46475649013e-07 -1.56833254176e-05 0)
(9.59298222673e-06 -5.67378175083e-05 0)
(2.78336583195e-05 -0.000107215886015 0)
(5.50760607172e-05 -0.000165628674037 0)
(9.10116605756e-05 -0.000231154704817 0)
(0.000135455943312 -0.000303131808421 0)
(0.000188324005262 -0.000381027659143 0)
(0.000249589153011 -0.000464419134834 0)
(0.000319281668571 -0.000552970774335 0)
(0.000397492658996 -0.000646415946656 0)
(0.000484375329111 -0.000744536255592 0)
(0.000580143972697 -0.000847143977097 0)
(0.000685071503484 -0.000954062737871 0)
(0.000799486297425 -0.00106511066352 0)
(0.000923767214891 -0.00118008175446 0)
(0.00105833820394 -0.00129872901688 0)
(0.00120366043203 -0.00142074607709 0)
(0.00136022378572 -0.0015457498455 0)
(0.00152853567097 -0.00167326224723 0)
(0.00170910795677 -0.00180269259464 0)
(0.00190244153293 -0.00193332003013 0)
(0.00210900696837 -0.00206427686238 0)
(0.00232922456141 -0.00219453366518 0)
(0.00256345061512 -0.00232288631756 0)
(0.00281195954225 -0.00244794483647 0)
(0.00307482433457 -0.00256812089762 0)
(0.00335150942282 -0.002681628987 0)
(0.0036412351519 -0.00278656115038 0)
(0.00394636171437 -0.00288092337321 0)
(0.00430266655771 -0.00296210850346 0)
(8.6428593288e-07 -2.42195291315e-05 0)
(1.10802710907e-05 -8.18571133502e-05 0)
(3.19634571962e-05 -0.000148397907039 0)
(6.2992200836e-05 -0.000222445554735 0)
(0.000103733060234 -0.000303265878846 0)
(0.000153926759667 -0.000390297600502 0)
(0.000213444430301 -0.000483118640565 0)
(0.000282238116821 -0.000581422360016 0)
(0.000360338215449 -0.000684993023045 0)
(0.000447856643537 -0.000793684431897 0)
(0.000544987147141 -0.000907397074842 0)
(0.00065200319316 -0.0010260586344 0)
(0.000769254821146 -0.0011496027209 0)
(0.000897164659483 -0.00127795016793 0)
(0.00103622260479 -0.00141098829486 0)
(0.00118697972477 -0.00154855180097 0)
(0.00135004014704 -0.00169040163645 0)
(0.00152605174606 -0.00183620455971 0)
(0.00171569437681 -0.00198551102025 0)
(0.00191966541314 -0.00213773316343 0)
(0.00213866234835 -0.00229212202403 0)
(0.00237336034328 -0.00244774534111 0)
(0.00262438790019 -0.00260346654289 0)
(0.00289230704512 -0.00275792676605 0)
(0.00317759407841 -0.00290952955424 0)
(0.00348050766175 -0.00305642509271 0)
(0.00380059789081 -0.00319650738926 0)
(0.00413702960502 -0.00332749829409 0)
(0.00449250181898 -0.00344702364332 0)
(0.00490929640777 -0.00355205848489 0)
(9.79949082708e-07 -3.34442896106e-05 0)
(1.25371942631e-05 -0.000108803686769 0)
(3.59819152406e-05 -0.000192338171985 0)
(7.06590540629e-05 -0.000282795389102 0)
(0.000116006469775 -0.000379570161389 0)
(0.000171691388001 -0.000482239554379 0)
(0.000237545460774 -0.000590526107707 0)
(0.000313505723894 -0.00070427102055 0)
(0.000399610834474 -0.000823407164159 0)
(0.000496003316331 -0.000947935416213 0)
(0.000602928610195 -0.0010779002231 0)
(0.000720731874423 -0.00121336841875 0)
(0.00084985415723 -0.00135440664477 0)
(0.000990827775416 -0.00150106097421 0)
(0.00114427085402 -0.00165333459241 0)
(0.0013108808839 -0.00181116653714 0)
(0.00149142684202 -0.00197440814928 0)
(0.00168673967359 -0.00214279936445 0)
(0.0018977006858 -0.00231594262512 0)
(0.00212522654074 -0.00249327569654 0)
(0.00237025110707 -0.00267404252429 0)
(0.00263370048288 -0.00285726328758 0)
(0.00291646382849 -0.0030417048188 0)
(0.00321936788721 -0.0032258540145 0)
(0.00354315202425 -0.00340789593949 0)
(0.00388832165864 -0.00358569441855 0)
(0.00425456937681 -0.00375678752363 0)
(0.00464100703323 -0.00391848940855 0)
(0.00505060258247 -0.00406803559506 0)
(0.00553265665442 -0.00420204909012 0)
(1.08844737457e-06 -4.32213744973e-05 0)
(1.39280240482e-05 -0.000137174234496 0)
(3.97996682023e-05 -0.000238378418896 0)
(7.79077628201e-05 -0.000345778960629 0)
(0.000127563275687 -0.000458942067832 0)
(0.00018836611508 -0.0005776210545 0)
(0.000260114384224 -0.000701716689442 0)
(0.000342737776925 -0.000831248248477 0)
(0.000436292246967 -0.000966324554547 0)
(0.000540960965441 -0.00110711874788 0)
(0.000657052040627 -0.00125384274921 0)
(0.000784994203858 -0.00140672510054 0)
(0.000925332435543 -0.00156598744701 0)
(0.00107872290257 -0.00173182314235 0)
(0.00124592759363 -0.00190437360731 0)
(0.00142780795338 -0.00208370555198 0)
(0.00162531764246 -0.00226978515068 0)
(0.00183949354773 -0.00246245166211 0)
(0.00207144525156 -0.00266138714856 0)
(0.00232234089049 -0.0028660842314 0)
(0.00259338979633 -0.00307580916787 0)
(0.00288581722342 -0.0032895625896 0)
(0.00320083267812 -0.00350603669087 0)
(0.00353959772499 -0.0037235747867 0)
(0.00390319525036 -0.00394013513524 0)
(0.0042924670201 -0.00415326262935 0)
(0.00470732631604 -0.00436008181153 0)
(0.00514683492257 -0.00455742990041 0)
(0.00561409072476 -0.0047421297291 0)
(0.00616578231854 -0.00491060375964 0)
(1.18920011074e-06 -5.34073710101e-05 0)
(1.5224812833e-05 -0.000166551583486 0)
(4.33342771306e-05 -0.000285845932291 0)
(8.45842206165e-05 -0.000410486240953 0)
(0.000138163785906 -0.000540252793371 0)
(0.000203612668775 -0.000675111211963 0)
(0.000280703956895 -0.000815172210742 0)
(0.000369368648761 -0.000960660994285 0)
(0.000469689259077 -0.00111188738364 0)
(0.000581899372882 -0.00126921952612 0)
(0.000706379900664 -0.0014330583446 0)
(0.000843653859541 -0.00160381468037 0)
(0.000994381562885 -0.00178188579888 0)
(0.00115935544402 -0.00196763308472 0)
(0.0013394949593 -0.00216135798601 0)
(0.0015358406764 -0.00236327784925 0)
(0.00174954795061 -0.00257349878091 0)
(0.00198187913813 -0.00279198686007 0)
(0.00223419481153 -0.00301853475667 0)
(0.00250794200331 -0.00325272462447 0)
(0.00280463978256 -0.00349388401844 0)
(0.00312585740192 -0.00374103553302 0)
(0.00347318425681 -0.00399283779951 0)
(0.00384819704908 -0.00424752222139 0)
(0.00425242561797 -0.00450282907283 0)
(0.00468717562358 -0.00475595180193 0)
(0.00515272251211 -0.00500351030104 0)
(0.00564812656096 -0.00524171465505 0)
(0.006176381953 -0.0054668541106 0)
(0.00680164301658 -0.00567535584546 0)
(1.27790238337e-06 -6.38583297231e-05 0)
(1.63963061679e-05 -0.000196522100173 0)
(4.65122457144e-05 -0.000334081216148 0)
(9.05553738516e-05 -0.0004760349571 0)
(0.000147603873236 -0.000622417508046 0)
(0.000217148948096 -0.000773440210494 0)
(0.000298947319105 -0.000929452358594 0)
(0.000392940275093 -0.00109090965072 0)
(0.00049924590187 -0.00125834482881 0)
(0.000618156958625 -0.00143234096396 0)
(0.000750135940159 -0.00161350699962 0)
(0.000895809120975 -0.00180245457958 0)
(0.00105596167499 -0.00199977549608 0)
(0.00123153265328 -0.00220601847443 0)
(0.00142361036609 -0.00242166578991 0)
(0.00163342722309 -0.00264710735185 0)
(0.00186235444804 -0.00288261393677 0)
(0.00211189571357 -0.00312830551398 0)
(0.00238368040354 -0.00338411752819 0)
(0.00267945488962 -0.00364975880237 0)
(0.0030010729007 -0.00392466419752 0)
(0.00335048049033 -0.00420793284499 0)
(0.00372969508312 -0.00449825478558 0)
(0.00414078201359 -0.00479381600546 0)
(0.00458583234365 -0.00509219232932 0)
(0.00506679292875 -0.00539022563246 0)
(0.0055845475421 -0.00568392402836 0)
(0.00613835585933 -0.00596857528072 0)
(0.00673087738894 -0.00623949620232 0)
(0.00743324339562 -0.00649310971453 0)
(1.35395425619e-06 -7.44278118989e-05 0)
(1.7415594954e-05 -0.00022667166622 0)
(4.9266383654e-05 -0.000382434457767 0)
(9.57073968378e-05 -0.000541564493814 0)
(0.000155719055272 -0.000704384956602 0)
(0.000228754857422 -0.000871383012131 0)
(0.000314565441733 -0.00104317016931 0)
(0.000413111201979 -0.00122045381415 0)
(0.000524553663859 -0.00140400681785 0)
(0.000649252002532 -0.00159464446908 0)
(0.00078775710561 -0.00179319881245 0)
(0.000940805276431 -0.00200049939503 0)
(0.00110931385875 -0.00221734828215 0)
(0.0012943764885 -0.00244450049598 0)
(0.00149725965782 -0.00268263690909 0)
(0.00171939804501 -0.00293234222782 0)
(0.00196239082702 -0.00319407304839 0)
(0.00222799608074 -0.00346813051916 0)
(0.00251812608652 -0.00375462035482 0)
(0.0028348407047 -0.00405341564541 0)
(0.00318034237329 -0.00436410168612 0)
(0.00355696881279 -0.00468591717712 0)
(0.00396718650186 -0.0050176641633 0)
(0.0044135886315 -0.00535759679757 0)
(0.0048989125331 -0.00570325355491 0)
(0.00542592808648 -0.00605124044163 0)
(0.00599650714096 -0.00639693838859 0)
(0.00661066300922 -0.0067343311462 0)
(0.00727080876283 -0.0070566759786 0)
(0.00805345117946 -0.00735924040691 0)
(1.41091467113e-06 -8.49518896226e-05 0)
(1.82640036222e-05 -0.000256573162606 0)
(5.15561210529e-05 -0.000430248517562 0)
(9.9973052508e-05 -0.000606206198038 0)
(0.000162411852754 -0.000785093261757 0)
(0.000238303213672 -0.000967695431553 0)
(0.000327401550165 -0.00115490672089 0)
(0.000429694495313 -0.00134769890142 0)
(0.000545393369789 -0.00154709910315 0)
(0.000674929041688 -0.00175416442957 0)
(0.000818944945331 -0.00196996352746 0)
(0.000978291758988 -0.00219555431513 0)
(0.001154023405 -0.0024319642732 0)
(0.00134739404869 -0.00268016748677 0)
(0.00155985490295 -0.00294106161368 0)
(0.00179305193329 -0.00321544194208 0)
(0.00204882245867 -0.00350397260926 0)
(0.00232919156151 -0.00380715524857 0)
(0.00263636722553 -0.00412529214847 0)
(0.00297273524635 -0.00445844605318 0)
(0.00334085456212 -0.00480639029397 0)
(0.00374345434578 -0.0051685513288 0)
(0.00418343617575 -0.00554392555655 0)
(0.00466389718284 -0.0059309677455 0)
(0.00518820039735 -0.00632740069875 0)
(0.00575999233496 -0.00672992246921 0)
(0.00638248563416 -0.00713367703773 0)
(0.00705747701508 -0.00753144753449 0)
(0.00778836472879 -0.00791301814206 0)
(0.00865303795804 -0.0082683429673 0)
(1.40207914267e-06 -9.52843696329e-05 0)
(1.89523998752e-05 -0.000285857335632 0)
(5.34019771661e-05 -0.000476946480392 0)
(0.000103369307514 -0.000669200636142 0)
(0.000167695439553 -0.00086362449864 0)
(0.000245807377182 -0.00106132314648 0)
(0.000337474867562 -0.00126348189727 0)
(0.00044271976913 -0.00147134741855 0)
(0.000561807570445 -0.00168620741857 0)
(0.000695243312101 -0.00190937110147 0)
(0.000843764545619 -0.00214215265473 0)
(0.00100833787057 -0.00238585099495 0)
(0.00119015584308 -0.00264173231899 0)
(0.00139063570781 -0.00291100612211 0)
(0.00161141804882 -0.00319480548045 0)
(0.00185436634966 -0.00349415690224 0)
(0.00212156552025 -0.00380995587266 0)
(0.00241531952558 -0.0041429286808 0)
(0.00273814740057 -0.00449360053901 0)
(0.00309277702435 -0.00486224786967 0)
(0.00348213656856 -0.00524885798385 0)
(0.00390934725993 -0.00565306690848 0)
(0.00437771633954 -0.00607410400924 0)
(0.00489075717592 -0.00651069186578 0)
(0.00545226479682 -0.00696092146343 0)
(0.00606642435901 -0.00742197546589 0)
(0.00673747932469 -0.0078896202031 0)
(0.00746973137953 -0.00835678259182 0)
(0.00827071841625 -0.00881013990939 0)
(0.00921148977134 -0.0092265054232 0)
(1.4425012919e-06 -0.000106056223999 0)
(1.95580113695e-05 -0.000316111949117 0)
(5.48824818856e-05 -0.000525082256756 0)
(0.000105955620512 -0.000734161295357 0)
(0.000171617181072 -0.000944742560438 0)
(0.000251313789923 -0.00115827827751 0)
(0.000344837408342 -0.00137627528283 0)