/*--------------------------------*- C++ -*----------------------------------*\
| =========                 |                                                 |
| \\      /  F ield         | OpenFOAM: The Open Source CFD Toolbox           |
|  \\    /   O peration     | Version:  v1912                                 |
|   \\  /    A nd           | Website:  www.openfoam.com                      |
|    \\/     M anipulation  |                                                 |
\*---------------------------------------------------------------------------*/
FoamFile
{
    version     2.0;
    format      ascii;
    class       volScalarField;
    location    "87";
    object      p;
}
// * * * * * * * * * * * * * * * * * * * * * * * * * * * * * * * * * * * * * //

dimensions      [0 2 -2 0 0 0 0];


internalField   nonuniform List<scalar> 
22000
(
0.0161285040263
0.0161046684544
0.0160427570935
0.0159408013983
0.0158021984324
0.0156287043143
0.0154207619065
0.0151775423095
0.0148984659927
0.0145835698293
0.0142342355678
0.0138509394847
0.0134333342424
0.0129801465857
0.0124917814724
0.0119694244368
0.0114148781387
0.010828013445
0.0102082669354
0.00955442904295
0.00886715902664
0.00814737226588
0.00739717081397
0.00661715548826
0.00580803066454
0.0049689998172
0.00410047102517
0.00320230556331
0.00227582968213
0.001322480643
0.0167216117637
0.0166958985465
0.0166319523787
0.0165282331313
0.0163874397378
0.0162118343002
0.0160017588653
0.0157558650253
0.0154736376627
0.0151551457386
0.0148015915076
0.01441388176
0.0139923009055
0.0135353250894
0.0130421436632
0.0125131472069
0.0119505899911
0.0113556820532
0.0107286984906
0.0100681805588
0.00937369584879
0.00864518168748
0.00788443339883
0.00709257217519
0.00627110732323
0.00541992472135
0.00453950549258
0.00362952097942
0.00269042675385
0.00172447735265
0.0178009098548
0.0177744427847
0.0177091409874
0.0176035329872
0.0174608080257
0.017282477894
0.0170682501976
0.0168177377428
0.0165313520052
0.0162084825273
0.0158490476128
0.015453786091
0.0150238055648
0.014558205714
0.0140559382806
0.0135168461299
0.0129429199742
0.0123355693969
0.0116952727581
0.0110205282401
0.0103105695857
0.00956507046987
0.008785685461
0.00797373986913
0.00713095579462
0.00625746314414
0.00535357615138
0.00441885645556
0.00345290626119
0.00245941728682
0.0192962511523
0.0192693740452
0.0192029030802
0.0190953125402
0.0189495238714
0.0187674166088
0.0185491746735
0.0182940694946
0.0180017296727
0.0176713763853
0.0173034189668
0.0168990973083
0.0164595021764
0.0159833466757
0.0154691492359
0.0149165596327
0.0143275551124
0.0137036430807
0.0130453258051
0.0123511124535
0.0116201169189
0.0108519394022
0.0100481014794
0.00920988626078
0.00833894085931
0.00743535187204
0.00649932049401
0.00553048390833
0.00452774286025
0.00349695257493
0.0211393674602
0.0211118895185
0.0210439941983
0.0209341388245
0.0207854868694
0.0205998038597
0.0203769071786
0.0201159567414
0.0198168151333
0.0194790137302
0.0191029258016
0.0186894170837
0.0182390965259
0.0177504743882
0.0172221351512
0.016653931595
0.0160478847883
0.0154053985807
0.0147267304903
0.0140102099829
0.0132547877174
0.0124599925125
0.0116272418881
0.0107577509375
0.00985300798158
0.00891305141825
0.00793793455026
0.00692746526937
0.00587964727569
0.00480303558968
0.0232722009659
0.0232442718559
0.0231752227874
0.0230634690321
0.0229120194055
0.0227226872888
0.022495444694
0.0222295138046
0.0219245493569
0.0215797948264
0.0211953781892
0.0207721027493
0.0203105711674
0.0198093460534
0.0192669787912
0.0186832451402
0.0180599336083
0.0173981947577
0.016697995844
0.0159575121987
0.0151755696043
0.0143516839592
0.0134871681369
0.0125831515334
0.0116409733553
0.0106605341144
0.00964167435951
0.00858431660412
0.00748541343404
0.00635649862351
0.0256415829729
0.0256132594708
0.0255432387995
0.0254298855064
0.0252763481448
0.0250844190909
0.0248538659337
0.0245837407529
0.024273571154
0.0239225624977
0.0235308304794
0.0230991803485
0.0226280697562
0.0221158485141
0.0215607957307
0.0209624978964
0.0203225412185
0.0196419156215
0.0189203825434
0.0181559818102
0.0173473896559
0.0164940189133
0.0155970113472
0.0146573311401
0.0136760155491
0.0126527986445
0.0115872283544
0.0104793588329
0.00932493172921
0.00813875595338
0.0281999490542
0.0281714559932
0.0281009881456
0.0279869095648
0.0278322334376
0.0276386787424
0.0274059794484
0.0271331845808
0.0268197234338
0.0264646818081
0.0260680070698
0.0256303466682
0.025151898996
0.024630780784
0.0240650533821
0.0234542012797
0.0227996579856
0.0221022424522
0.0213614280266
0.0205750131146
0.0197413957901
0.0188598080981
0.017931123501
0.0169560822808
0.0159354494993
0.0148687242579
0.0137551374091
0.0125948330064
0.0113822567807
0.010135470698
0.0309034268036
0.0308749839444
0.03080460458
0.0306906127489
0.0305360187729
0.0303425032041
0.0301096874805
0.0298365105916
0.0295222255593
0.0291657459111
0.0287668405215
0.0283260205627
0.027843270393
0.0273165032145
0.0267435653478
0.0261237896473
0.0254583699697
0.0247478380588
0.0239912763188
0.0231861568509
0.0223305627357
0.0214235011146
0.0204655725479
0.019457269188
0.0183989613356
0.0172898885472
0.0161288776943
0.0149161039285
0.013644580874
0.0123355585699
0.0337120498147
0.0336839549194
0.0336144025937
0.0335017531008
0.0333488677032
0.0331573101198
0.0329265930117
0.0326555668205
0.0323433173636
0.0319886025533
0.0315910291614
0.0311509672408
0.030668141422
0.0301401910477
0.0295646692321
0.0289406885164
0.0282691403406
0.0275502187764
0.0267825733104
0.0259633245005
0.0250902061735
0.0241619748501
0.023178883195
0.02214107891
0.0210485090737
0.0199000120863
0.0186939198524
0.0174303465373
0.0161008243683
0.014729428187
0.0365892065711
0.0365617928955
0.0364938733257
0.0363838145438
0.0362343275636
0.0360468603927
0.0358208215773
0.0355549723622
0.0352482263504
0.0348991599702
0.0345071830152
0.0340724726009
0.0335944425008
0.0330704136047
0.0324976282809
0.031874967064
0.0312030063586
0.0304815658389
0.0297088188731
0.0288814745338
0.0279968650438
0.027053410859
0.0260509425964
0.0249891751853
0.0238674658861
0.0226841866546
0.0214370890733
0.0201261154455
0.0187412653579
0.017309003183
0.0395015984029
0.0394752176673
0.0394097930311
0.039303757392
0.0391596071117
0.0389786420615
0.0387601670143
0.0385028423296
0.0382053818977
0.0378661610558
0.0374843850162
0.0370600296597
0.0365921825701
0.0360778322656
0.0355139021084
0.0348990247686
0.0342334222299
0.0335164756709
0.0327458064445
0.0319176408469
0.0310288380881
0.0300774190153
0.0290627054317
0.0279838711954
0.0268396451651
0.025627794827
0.0243453910189
0.0229920987145
0.0215563860574
0.0200663667672
0.042419313285
0.0423943352345
0.0423323326607
0.042231805721
0.0420949864146
0.0419229993799
0.0417150465818
0.0414696918095
0.0411854555765
0.0408605135041
0.0404938722828
0.0400852954977
0.0396335243548
0.0391351862906
0.038586867978
0.0379869255612
0.037335185969
0.0366305284146
0.0358699650089
0.0350491842326
0.0341645352289
0.0332135786725
0.032195064846
0.0311075450042
0.0299489656104
0.0287164027797
0.0274061568966
0.0260174321878
0.0245371685698
0.0229942787305
0.0453157131811
0.0452925156326
0.0452348429054
0.0451413017475
0.0450138129498
0.0448533085188
0.0446589054385
0.0444290781415
0.0441621479765
0.0438560879963
0.0435097088318
0.0431225509936
0.0426929884541
0.0422172696716
0.0416916422004
0.0411141785123
0.0404842864501
0.0398002982008
0.0390585713156
0.0382542155375
0.0373830289825
0.0364420576568
0.0354293976956
0.0343428560904
0.0331795232073
0.0319356271864
0.0306065629069
0.0291909291817
0.0276741778042
0.0260848952866
0.0481675365926
0.0481464696078
0.0480940266798
0.0480089344381
0.0478927516255
0.0477462016715
0.0475683299867
0.0473575298986
0.0471119298722
0.0468293063126
0.0465082874262
0.0461481864535
0.0457470012209
0.0453005968892
0.0448048978906
0.044257697858
0.0436579705099
0.0430034590959
0.0422898284061
0.0415115720372
0.0406639069611
0.0397433047962
0.0387471311537
0.0376723524901
0.0365150552055
0.0352705155933
0.0339331406716
0.0325006966585
0.0309572219743
0.0293297589348
0.0509548120547
0.0509362264162
0.0508898576404
0.0508145851858
0.0507115657275
0.050581301996
0.0504227910119
0.0502343548025
0.0500139349524
0.0497591319906
0.0494684204971
0.0491408936091
0.0487741686787
0.0483637310035
0.047905204196
0.0473961135123
0.0468349858248
0.0462189415967
0.0455429273164
0.0448008030483
0.0439871874547
0.0430979359114
0.0421296124637
0.0410782312236
0.0399387957521
0.0387054916878
0.0373716093207
0.0359339243103
0.0343751609186
0.0327193567403
0.0536608277031
0.0536450193297
0.0536054987922
0.0535413117701
0.053453167672
0.0533413481814
0.0532048285498
0.0530418713628
0.0528502394812
0.0526273776377
0.0523716400262
0.0520819129803
0.0517554424382
0.0513873543185
0.0509730112896
0.0505096904961
0.0499954653018
0.049426807103
0.0487979353208
0.048102080975
0.047333273753
0.0464867260023
0.0455581406172
0.044542489695
0.0434335661186
0.0422243566912
0.0409069649703
0.0394769281289
0.0379158040248
0.0362431248254
0.056271976493
0.0562592265777
0.0562272370028
0.0561752452996
0.0561034834302
0.0560120105072
0.055899818223
0.0557651317479
0.0556055505057
0.0554183907888
0.0552019158535
0.0549548122711
0.0546739653204
0.0543541816457
0.0539906289882
0.0535803780107
0.0531210503819
0.0526084451133
0.0520360508959
0.0513964892265
0.0506832292144
0.0498908394025
0.0490141232702
0.0480469251372
0.0469817527635
0.0458102740215
0.0445232914536
0.043114934628
0.0415657694504
0.0398891472075
0.0587776204855
0.0587681445915
0.0587442698176
0.0587054380908
0.0586513653728
0.0585818901708
0.0584960398129
0.0583920174448
0.0582672945433
0.0581191182204
0.0579457116311
0.0577455632338
0.057515191117
0.0572491173932
0.0569423992397
0.0565919728222
0.0561950357624
0.0557467048531
0.0552397405233
0.0546661780541
0.0540189623934
0.0532920268937
0.0524792545324
0.0515733144
0.0505653588011
0.0494456657794
0.0482036979384
0.046831933208
0.0453101620566
0.0436439246431
0.0611698437945
0.0611638295894
0.0611485321531
0.061123612387
0.06108826829
0.0610421492084
0.0609843521802
0.0609130360216
0.06082553347
0.060719086677
0.0605919749231
0.0604425285498
0.0602668921847
0.0600593160266
0.0598148154812
0.0595302692347
0.0592025051979
0.0588259893117
0.0583927998762
0.0578944369613
0.0573233581675
0.0566728507042
0.0559358390153
0.0551037647585
0.0541664140316
0.0531126461165
0.0519305549528
0.0506108205479
0.0491326944489
0.0474922321784
0.0634432500662
0.0634408222242
0.0634344746442
0.0634240800698
0.063408252397
0.0633864737917
0.0633580081114
0.0633210088908
0.0632726355011
0.0632101232965
0.0631318810649
0.0630361597113
0.0629187851541
0.062773791209
0.0625962032582
0.062382865165
0.0621302428964
0.0618322090866
0.061480293775
0.0610656184577
0.0605802386619
0.0600167706603
0.059367078665
0.0586212909922
0.0577677897871
0.0567940312885
0.0556867840514
0.0544347537966
0.0530169222822
0.0514184238416
0.0655946635532
0.0655958823922
0.0655986608143
0.06560319039
0.0656075229998
0.0656108860135
0.0656127055602
0.0656112263172
0.0656034956153
0.0655867669894
0.0655595324398
0.0655199372876
0.065463565686
0.0653844426032
0.0652777430263
0.0651402422138
0.0649678857684
0.0647539242348
0.0644895093344
0.0641656897177
0.0637743233056
0.0633073813692
0.0627555262164
0.0621074205737
0.0613499417595
0.0604691127433
0.0594502759635
0.0582799427297
0.0569366403414
0.0553937178295
0.0676228724698
0.0676279605327
0.0676399879441
0.0676594347992
0.0676839698042
0.0677126666328
0.067745052851
0.0677793632863
0.0678127217947
0.0678426469439
0.0678677220547
0.0678857179542
0.0678919479788
0.067880742496
0.0678478451796
0.0677900002007
0.0677024086947
0.0675774684806
0.0674060909677
0.0671796001529
0.0668900694024
0.0665290166214
0.0660859678443
0.0655480746118
0.0649007483589
0.0641285695474
0.0632154404656
0.0621452385573
0.0608946811852
0.0594243066577
0.0695278366591
0.0695370494402
0.069559211524
0.0695949837235
0.0696411767494
0.0696968534649
0.0697617130241
0.0698336788491
0.0699099203151
0.0699886198944
0.0700686628214
0.0701471450169
0.0702188375767
0.0702785735317
0.0703231907713
0.0703496837359
0.0703524496574
0.0703227675652
0.0702512465041
0.0701295747968
0.069950319299
0.0697047367538
0.0693814665547
0.0689662433489
0.0684431927798
0.0677953925349
0.0670053550086
0.0660531882563
0.0649147054849
0.0635284711039
0.0713116536099
0.0713203946678
0.0713472981979
0.0713943345544
0.0714570026922
0.0715342372865
0.0716261253194
0.0717302124444
0.0718433850913
0.0719645999191
0.072093162923
0.0722254651691
0.0723552942741
0.0724777719248
0.0725906213358
0.0726912616346
0.0727732592846
0.0728268897149
0.072842026137
0.07281031749
0.0727240703075
0.0725741051984
0.0723479413938
0.0720302551681
0.0716037627844
0.0710503919035
0.0703511829926
0.0694830175248
0.0684215235603
0.0670583587783
0.000400957276634
-0.000481140805199
-0.00138081323683
-0.00229877341502
-0.00323450075
-0.00418840496197
-0.00515873057828
-0.00614560233495
-0.00714699254156
-0.00816264928295
-0.00919040796706
-0.0102306740939
-0.0112815919137
-0.0123432110107
-0.0134130980961
-0.0144914940184
-0.015576443641
-0.0166686354153
-0.0177657597033
-0.018867901767
-0.0199721947385
-0.0210787441575
-0.0221850050809
-0.0232915448409
-0.0243959738144
-0.025498774232
-0.026597278371
-0.0276918506197
-0.0287796794174
-0.0298611778543
-0.0309337845739
-0.0319981683315
-0.0330517517504
-0.0340950573393
-0.0351255134184
-0.0361436893067
-0.0371470393486
-0.0381360703709
-0.0391082864697
-0.0400643716919
-0.0410019348225
-0.0419218054873
-0.0428216133198
-0.0437022698759
-0.0445615302307
-0.0454003382338
-0.0462164059471
-0.0470105858998
-0.047780937869
-0.0485275790245
0.000791071535209
-9.94665546257e-05
-0.00100857132327
-0.00193561607822
-0.00288144434515
-0.00384558738951
-0.00482545296862
-0.00582280837583
-0.00683742353862
-0.00786806792775
-0.00891113425094
-0.00996711910921
-0.0110356824201
-0.0121173020844
-0.0132088538565
-0.0143093581161
-0.0154167264917
-0.016531944939
-0.0176535107466
-0.018781494632
-0.0199129679258
-0.0210473011968
-0.0221817707792
-0.0233164760826
-0.0244492740367
-0.0255804762401
-0.0267076874734
-0.0278308868824
-0.0289473723659
-0.0300570884447
-0.0311574133414
-0.0322485420078
-0.0333280730681
-0.0343963209323
-0.0354509033276
-0.0364921304431
-0.0375176370943
-0.0385277114714
-0.03951990087
-0.0404945648419
-0.041449453883
-0.0423852086413
-0.0432997535358
-0.0441937477516
-0.0450653373438
-0.0459150749123
-0.0467414092367
-0.0475446562786
-0.0483238868838
-0.0490771539841
0.00149431277425
0.000572113729512
-0.000371566255631
-0.00133224251456
-0.00231112274067
-0.00330850801571
-0.00432196852003
-0.00535340048489
-0.00640259256527
-0.00746794127575
-0.00854581047604
-0.00963707202758
-0.0107417224807
-0.0118599058033
-0.0129879302907
-0.0141244041633
-0.0152675120543
-0.0164186100229
-0.0175765356941
-0.0187412455795
-0.0199095864958
-0.0210805929141
-0.022251444798
-0.0234222548974
-0.0245910629737
-0.0257582736766
-0.0269215512978
-0.0280807662422
-0.0292331321348
-0.0303784120795
-0.0315139391434
-0.0326397886135
-0.0337536404714
-0.0348558424854
-0.0359441593168
-0.0370188916607
-0.038077676644
-0.0391208064818
-0.0401457992191
-0.0411530630518
-0.0421402550321
-0.0431081002676
-0.0440544948702
-0.0449801997821
-0.0458832899253
-0.0467643714103
-0.0476219854115
-0.0484562958426
-0.049267267794
-0.0500482751412
0.00248743366466
0.00151856419223
0.000524933402927
-0.000483693470232
-0.00150913900011
-0.00255287007138
-0.00361283788882
-0.00469109490503
-0.00578761611957
-0.00690051394238
-0.00802592485722
-0.00916471833238
-0.0103171761212
-0.0114834782881
-0.0126599144085
-0.0138450352277
-0.0150371114397
-0.0162375562708
-0.0174452867607
-0.0186601226785
-0.0198788521646
-0.021100377916
-0.0223219301698
-0.0235435919354
-0.0247634703026
-0.025981920404
-0.0271965629704
-0.0284071592575
-0.0296108473407
-0.0308073236254
-0.0319938375077
-0.0331704943968
-0.0343349145228
-0.035487537443
-0.0366260105415
-0.0377507415712
-0.0388591951704
-0.0399517653332
-0.0410258333364
-0.0420819145341
-0.0431175192224
-0.0441334089213
-0.0451274215544
-0.0461003758458
-0.0470504841325
-0.0479783126394
-0.0488826081084
-0.0497630705346
-0.0506210501571
-0.0514431232585
0.00373728908199
0.00270627382598
0.00164611978761
0.000574012994046
-0.00051293034688
-0.00161806569581
-0.00273972229155
-0.0038798062448
-0.00503813391329
-0.00621253035672
-0.0073991387417
-0.00859902749959
-0.00981275907872
-0.0110405131851
-0.0122785176403
-0.0135251500307
-0.0147787982372
-0.0160408768789
-0.0173103652991
-0.0185869900276
-0.0198675261661
-0.0211508020854
-0.0224340782982
-0.0237174102755
-0.0249989444555
-0.0262789973919
-0.0275551900401
-0.0288272447326
-0.0300922955856
-0.0313500023001
-0.0325976285741
-0.0338352829503
-0.0350606170717
-0.0362740755724
-0.0374732999169
-0.0386587066113
-0.0398277482957
-0.0409808322975
-0.0421153363845
-0.0432318144108
-0.0443278059065
-0.045404110945
-0.0464586119349
-0.0474922014969
-0.0485030926319
-0.0494919155577
-0.0504574707271
-0.0513991612806
-0.0523199670674
-0.0531977377456
0.00522533277494
0.00411852191474
0.00297729842241
0.00182859399492
0.000667920262109
-0.000510714379935
-0.00170617745964
-0.00291994354575
-0.00415166811354
-0.00539900211586
-0.00665819423966
-0.00793049020403
-0.00921669771465
-0.0105168509816
-0.0118270921033
-0.0131457823483
-0.0144714622871
-0.0158056241962
-0.0171473388264
-0.0184962057486
-0.0198489942441
-0.0212044480365
-0.0225599138425
-0.0239154298347
-0.0252692384533
-0.0266216212904
-0.0279702304972
-0.0293147286379
-0.0306522685248
-0.0319824753313
-0.0333026429894
-0.0346129025389
-0.0359108976707
-0.0371970790997
-0.0384690565281
-0.0397273038504
-0.0409692224939
-0.0421952982726
-0.0434028425825
-0.0445925090555
-0.0457618023532
-0.0469116376167
-0.0480398979632
-0.0491475409079
-0.0502328555182
-0.0512964397985
-0.0523372926112
-0.0533542824836
-0.0543525059155
-0.05529889469
0.00693474968759
0.00573929395748
0.00450325869421
0.00326585446955
0.00202002363811
0.000756265999388
-0.000524698808182
-0.00182375863771
-0.00314028357696
-0.00447178308626
-0.00581470736619
-0.00717048001992
-0.008540038326
-0.00992330236032
-0.011316424425
-0.0127177356673
-0.0141260600356
-0.015542906013
-0.0169673650343
-0.0183988625281
-0.0198341530338
-0.0212719243556
-0.0227096418141
-0.0241473705636
-0.0255834626317
-0.0270181718211
-0.0284491845171
-0.0298761098571
-0.0312961071427
-0.0327087905826
-0.034111504647
-0.0355043776553
-0.0368850883758
-0.0382541082352
-0.0396090817948
-0.0409505029077
-0.0422758094607
-0.043585490597
-0.0448769118841
-0.0461507569187
-0.0474046147492
-0.0486394512927
-0.0498532186377
-0.0510469330173
-0.0522188743347
-0.0533697117
-0.0544985657162
-0.0556038201082
-0.056693008699
-0.0577202427586
0.00885327310373
0.00755703494751
0.00621314496923
0.00487593759764
0.00353463813669
0.00217526179008
0.000798061086419
-0.000596876888546
-0.00200859864141
-0.00343454821951
-0.00487138106319
-0.00632069280862
-0.00778363107822
-0.00925994611057
-0.0107457840906
-0.0122395407617
-0.0137402188822
-0.0152493338621
-0.0167660046584
-0.018289486219
-0.0198165756713
-0.0213459457509
-0.0228752439208
-0.0244045664033
-0.0259323888112
-0.0274589117109
-0.0289818427996
-0.030500708569
-0.0320127175158
-0.033517477804
-0.0350123949437
-0.0364976423696
-0.0379709397133
-0.039432803068
-0.0408809202928
-0.042315843659
-0.0437350041123
-0.0451389478316
-0.0465250357655
-0.0478940383848
-0.0492435827753
-0.050574727054
-0.0518854798623
-0.0531769117578
-0.0544474310778
-0.0556976742221
-0.0569270683579
-0.0581332804264
-0.0593268177958
-0.060446902359
0.0109717639119
0.00956303109781
0.00809871581295
0.00665147277391
0.00520518064072
0.00374018933378
0.00225657142971
0.00075567542617
-0.000761119547901
-0.00229125299201
-0.0038317434802
-0.0053843711336
-0.00695034108176
-0.00852925499372
-0.0101173043129
-0.0117128989937
-0.0133153318692
-0.0149260952768
-0.0165442945801
-0.0181690208055
-0.019797130906
-0.0214273094118
-0.0230573919743
-0.0246875060599
-0.0263162507161
-0.0279437538177
-0.0295677651285
-0.0311877291257
-0.0328009070631
-0.0344069071901
-0.0360032638969
-0.0375901474327
-0.0391653941879
-0.0407295491983
-0.0422803873557
-0.0438184510408
-0.0453412562285
-0.046849326129
-0.0483401272681
-0.0498144540766
-0.0512700660067
-0.0527080823174
-0.0541266163569
-0.0555268274593
-0.0569071591717
-0.0582683348454
-0.0596100226313
-0.0609291742545
-0.062239613719
-0.0634639014937
0.0132825114214
0.0117497745288
0.0101527567519
0.00858593235027
0.00702585305711
0.00544594850306
0.00384625579552
0.00222988937556
0.00059868967816
-0.00104494217525
-0.00269837736957
-0.00436354977208
-0.0060417815802
-0.00773244015522
-0.00943175541265
-0.0111382742178
-0.0128515007352
-0.0145728913107
-0.016301546526
-0.0180363647776
-0.0197742823616
-0.0215140132735
-0.0232536218458
-0.0249932639532
-0.0267316677622
-0.0284688898155
-0.0302027241509
-0.0319325167502
-0.0336556474886
-0.0353717097475
-0.0370783608341
-0.0387758046491
-0.0404619990907
-0.0421374989917
-0.043800206664
-0.045450677491
-0.0470864861826
-0.0487081827324
-0.050313318052
-0.0519027590425
-0.0534743816415
-0.0550293896435
-0.056566026109
-0.0580855130991
-0.0595864788838
-0.0610696156728
-0.0625349850025
-0.0639786374378
-0.0654182172964
-0.0667578502971
0.0157793660965
0.0141112645148
0.012369585296
0.0106744051327
0.00899243327743
0.0072887274717
0.00556377611797
0.0038228586513
0.00206832106714
0.000302346472361
-0.00147295100274
-0.00325966596519
-0.00505906417388
-0.00687031027285
-0.0086897163753
-0.010515911834
-0.0123487149287
-0.0141895153918
-0.0160373433744
-0.0178909053309
-0.0197472194614
-0.0216050464206
-0.0234627014629
-0.0253203824083
-0.0271769582412
-0.0290323949831
-0.0308845576504
-0.0327327023817
-0.034574303204
-0.0364089422482
-0.0382344579562
-0.0400510202425
-0.041856765886
-0.0436522729284
-0.045435587386
-0.0472072365812
-0.0489649529892
-0.050709249624
-0.0524378528235
-0.0541516449206
-0.055848691404
-0.057530264322
-0.059194774948
-0.0608435421949
-0.0624753080244
-0.0640908371998
-0.0656905979095
-0.067269676834
-0.0688499584297
-0.0703155694442
0.0184564099286
0.0166417562163
0.0147438001306
0.012912212592
0.0111008813011
0.00926503499452
0.00740602971579
0.00553188280974
0.00364548180999
0.00174858984568
-0.000157178520557
-0.0020740498476
-0.00400329509242
-0.00594375395912
-0.00789178891819
-0.00984623040965
-0.0118071425718
-0.0137758425141
-0.0157513040364
-0.0177320133922
-0.0197150759602
-0.0216993027675
-0.0236832759247
-0.0256672441967
-0.0276502263716
-0.0296321045675
-0.0316108118018
-0.0335854889864
-0.035553764151
-0.0375151754123
-0.0394677233576
-0.0414115957518
-0.0433451235528
-0.0452688570472
-0.0471810704979
-0.0490822696878
-0.050970339756
-0.0528457806634
-0.0547064971567
-0.0565534027375
-0.0583847750329
-0.0602019489218
-0.0620035394648
-0.0637909328284
-0.0655631136002
-0.0673208399787
-0.0690650985221
-0.0707898901806
-0.0725218478485
-0.074123473857
0.021308439129
0.0193361468431
0.0172706418125
0.015295316436
0.0133477310163
0.011371756397
0.00937035771224
0.00735472829533
0.00532824665654
0.00329222782697
0.0012476657128
-0.000807814718571
-0.00287530224575
-0.00495333493662
-0.00703834471923
-0.0091293058373
-0.011226629968
-0.0133315575619
-0.0154429340892
-0.01755902717
-0.0196770303131
-0.0217958094163
-0.0239142027088
-0.0260325054021
-0.0281498962714
-0.030266171478
-0.0323793580104
-0.0344885000925
-0.0365913351092
-0.0386873698803
-0.0407748279636
-0.042853840987
-0.0449229683353
-0.046982782848
-0.049031757913
-0.0510703674036
-0.0530967325617
-0.0551113009376
-0.0571122138713
-0.0591003884563
-0.0610743617168
-0.0630355261359
-0.0649827322078
-0.0669174647303
-0.068838907726
-0.0707478670292
-0.0726459522051
-0.0745258438275
-0.0764196549407
-0.0781661587024
0.0243295593148
0.0221887302803
0.0199449118634
0.017819328891
0.0157291856464
0.013605602937
0.0114539243449
0.00928901030024
0.00711466588109
0.0049315577531
0.00274012464287
0.000537911965084
-0.00167603689101
-0.00389981819928
-0.0061298913872
-0.00836550154205
-0.0106073502897
-0.0128566064123
-0.015112008698
-0.0173715600415
-0.0196325216523
-0.0218938170841
-0.0241545332298
-0.0264150008829
-0.0286745472261
-0.0309329003642
-0.0331881956581
-0.0354393798561
-0.0376843563106
-0.0399225681409
-0.0421524085843
-0.0443740217978
-0.0465861950797
-0.0487894527271
-0.0509825608038
-0.0531659701964
-0.0553380153184
-0.0574991218278
-0.0596476807503
-0.0617846170957
-0.0639087519136
-0.0660215236975
-0.0681220809734
-0.0702119652474
-0.0722906843986
-0.0743590851054
-0.0764192687345
-0.0784628568009
-0.0805273825445
-0.0824264426726
0.0275133410813
0.0251933889038
0.0227612157211
0.0204797930316
0.0182413759105
0.0159630639496
0.0136537316301
0.0113322932731
0.00900272071496
0.00666496182425
0.00431885459705
0.0019618968989
-0.000406498034316
-0.00278398340801
-0.00516705940833
-0.00755518336316
-0.00994944187417
-0.0123509461368
-0.0147582764224
-0.0171691844999
-0.0195809622636
-0.021992568092
-0.0244033201732
-0.0268135761298
-0.0292228019907
-0.0316306607122
-0.0340354109324
-0.0364359365475
-0.0388302702636
-0.0412178123488
-0.0435971757957
-0.0459684290292
-0.0483306000493
-0.0506842501288
-0.0530283666562
-0.0553633796986
-0.0576879092756
-0.0600023328686
-0.0623053248731
-0.0645978112692
-0.0668789374697
-0.0691501805474
-0.0714110170183
-0.0736630575511
-0.0759061396814
-0.0781410506705
-0.0803707426428
-0.0825851799057
-0.0848281194024
-0.0868865561784
0.0308522534793
0.0283431083407
0.025713487091
0.0232717459125
0.0208800266538
0.0184403183639
0.0159663594276
0.0134816268349
0.0109900265753
0.00849047033842
0.0059822185745
0.00346285501268
0.000932185083512
-0.00160682498953
-0.00415063505048
-0.00669902243746
-0.00925338982034
-0.0118148061479
-0.0143817558216
-0.0169517341997
-0.0195220286348
-0.0220915842608
-0.0246598972342
-0.0272273387085
-0.0297935009929
-0.0323580075075
-0.034919249573
-0.0374760534399
-0.0400266181491
-0.0425702853563
-0.0451058183419
-0.0476332968281
-0.0501519798828
-0.0526623785358
-0.0551638025005
-0.0576566748135
-0.0601398531616
-0.062613720221
-0.0650772455874
-0.0675313900923
-0.0699756153349
-0.0724115041267
-0.0748387842937
-0.0772592691797
-0.079672841924
-0.0820806445837
-0.0844859687365
-0.0868775302358
-0.0893055288993
-0.0915300435135
0.0343376468802
0.0316298892494
0.0287948431226
0.0261895179574
0.02364033624
0.0210331373196
0.0183880731437
0.0157337337396
0.0130736935642
0.0104056732888
0.007728266715
0.00503913331146
0.00233869809102
-0.000369420969243
-0.00308159476728
-0.00579777268691
-0.00851972035554
-0.0112485053654
-0.0139825088284
-0.0167190396048
-0.0194553524106
-0.0221903192321
-0.0249235220828
-0.0276553173475
-0.0303854069127
-0.0331134069895
-0.0358378589131
-0.0385575688959
-0.041270856114
-0.043977019827
-0.0466750070323
-0.0493648255047
-0.0520459604951
-0.0547190004
-0.0573834768893
-0.0600398188723
-0.0626872015839
-0.0653259958517
-0.0679554932143
-0.0705766914525
-0.07318940392
-0.0757952342285
-0.0783942793375
-0.0809882825248
-0.0835776725016
-0.0861632366178
-0.0887495095498
-0.0913233060172
-0.0939417566056
-0.0963387688092
0.0379593983123
0.0350446018042
0.031997444837
0.0292264115855
0.0265164999972
0.0237365658493
0.0209146203168
0.0180848785837
0.0152504805462
0.0124077592051
0.0095546299252
0.00668886606763
0.00381144045684
0.00092675914691
-0.00196125927208
-0.00485269033639
-0.00774951356524
-0.010652841973
-0.013561093545
-0.0164714276507
-0.0193810455898
-0.0222886763474
-0.0251938883485
-0.0280969576067
-0.0309976559119
-0.0338956267527
-0.0367896007944
-0.0396783920085
-0.0425604644131
-0.04543505843
-0.0483012234476
-0.0511589633283
-0.0540079826538
-0.0568488413623
-0.0596813963891
-0.0625061097862
-0.0653223885367
-0.0681306700878
-0.0709305381761
-0.0737230343783
-0.0765082738611
-0.0792879272341
-0.0820623791377
-0.0848335046852
-0.0876020231016
-0.0903689316577
-0.0931395572619
-0.0958994225527
-0.0987125238718
-0.101287087915
0.041705756225
0.038577000883
0.0353128629937
0.0323752226426
0.0295021241604
0.0265450240038
0.0235411200098
0.0205305884887
0.0175161780336
0.0144930660095
0.0114584776136
0.0084100014322
0.00534902355064
0.00228068968125
-0.00079057430966
-0.00386456483438
-0.00694336424419
-0.0100281876167
-0.0131175837047
-0.0162087010265
-0.019298667262
-0.0223859829426
-0.0254700890199
-0.0285511235187
-0.0316288801263
-0.0347030353
-0.0377725156349
-0.0408361886043
-0.0438926375008
-0.0469410545237
-0.0499805866958
-0.0530111664131
-0.0560326718957
-0.0590457707943
-0.06205052075
-0.0650474231494
-0.0680362206535
-0.0710173379587
-0.0739906579541
-0.0769572181562
-0.0799175060558
-0.0828731804295
-0.0858251347204
-0.088775309327
-0.091725174193
-0.0946756747737
-0.0976336545913
-0.100582703295
-0.103594134208
-0.106349275526
0.0455626982196
0.0422148475959
0.0387307857435
0.0356268165905
0.0325894785522
0.029452873291
0.0262636211161
0.0230672807743
0.0198666560998
0.0166568597291
0.01343506438
0.0101984197211
0.00694798292001
0.00368934689521
0.000427688683156
-0.00283610322271
-0.0061038538951
-0.00937687318234
-0.0126539659263
-0.0159324842095
-0.0192094619724
-0.0224831699285
-0.0257527292842
-0.0290180880261
-0.0322789139038
-0.0355349924515
-0.0387854039245
-0.0420291989211
-0.0452650362962
-0.0484921609377
-0.0517096764541
-0.0549176672899
-0.0581159621408
-0.0613054846563
-0.0644864002638
-0.0676593986338
-0.0708244261191
-0.0739819967015
-0.0771321790968
-0.0802761583073
-0.0834146756139
-0.0865496803733
-0.0896823312244
-0.0928148668355
-0.0959489818394
-0.0990857649844
-0.102232425406
-0.105370704116
-0.108578627362
-0.111507366817
0.0495160422351
0.0459482478513
0.0422432631384
0.0389707956948
0.0357657612651
0.0324485640314
0.0290744673032
0.0256911431438
0.0223002338007
0.0188981698838
0.0154837166276
0.012053933566
0.00860898789869
0.00515412513548
0.00169531281952