/*--------------------------------*- C++ -*----------------------------------*\
| =========                 |                                                 |
| \\      /  F ield         | OpenFOAM: The Open Source CFD Toolbox           |
|  \\    /   O peration     | Version:  v1912                                 |
|   \\  /    A nd           | Website:  www.openfoam.com                      |
|    \\/     M anipulation  |                                                 |
\*---------------------------------------------------------------------------*/
FoamFile
{
    version     2.0;
    format      ascii;
    class       surfaceScalarField;
    location    "87";
    object      phi;
}
// * * * * * * * * * * * * * * * * * * * * * * * * * * * * * * * * * * * * * //

dimensions      [0 3 -1 0 0 0 0];
oriented        oriented;


internalField   nonuniform List<scalar> 
43645
(
0.395125986317
-7.10635621677e-06
0.395147233506
-2.12457683685e-05
0.39518259639
-3.53499672951e-05
0.395232020786
-4.94265154966e-05
0.395295503627
-6.34706246369e-05
0.395372973446
-7.74756480932e-05
0.395464421536
-9.14362087326e-05
0.395569753408
-0.000105342482603
0.395688950209
-0.000119186193899
0.395821900564
-0.000132963946676
0.3959685826
-0.000146672041728
0.396128867901
-0.000160299557037
0.39630271066
-0.000173832746706
0.396489949976
-0.000187256780921
0.396690522571
-0.000200561139283
0.396904238758
-0.000213737590534
0.397131031852
-0.000226781382813
0.397370693677
-0.000239683351065
0.397623137646
-0.000252430410438
0.397888119034
-0.000265001599771
0.398165519158
-0.000277377809685
0.398455037263
-0.000289541250241
0.398756542551
-0.000301481745119
0.39906970145
-0.000313189153037
0.39939438313
-0.000324653857821
0.39973021179
-0.000335860483077
0.400077024789
-0.000346788803691
0.40043442881
-0.000357437177668
0.400802095691
-0.000367643977104
-0.000378455493526
0.401180515365
0.372949147839
-1.36939590188e-05
0.372969117412
-4.12106325828e-05
0.373002467173
-6.86868278394e-05
0.373049163548
-9.61204404736e-05
0.373109209505
-0.000123502334924
0.373182552869
-0.000150819199495
0.373269191973
-0.000178060295036
0.373369060915
-0.000205215357625
0.373482159159
-0.00023226910672
0.373608388138
-0.000259201245955
0.373747723108
-0.000285991431003
0.373900036918
-0.000312622921818
0.374065303931
-0.000339083139352
0.374243393747
-0.000365358634036
0.374434280406
-0.00039142974551
0.374637795795
-0.0004172694577
0.374853882199
-0.000442848344771
0.375082318079
-0.000468139197708
0.375323028928
-0.000493119007082
0.375575772631
-0.000517765379662
0.375840475219
-0.000542053484907
0.376116864641
-0.000565954306959
0.376404842215
-0.000589435016273
0.376704083798
-0.000612461846933
0.377014453628
-0.000635000396632
0.377335575828
-0.000657018119221
0.377667280414
-0.000678475693308
0.378009180769
-0.000699375322405
0.378360969711
-0.000719413960285
-0.000740529894898
0.378723005766
0.352017323086
-2.01145297466e-05
0.352036542604
-6.04294260455e-05
0.352068565962
-0.000100701606237
0.35211336912
-0.000140925968785
0.352170964115
-0.000181089066641
0.352241316279
-0.000221176698533
0.352324434033
-0.000261169679199
0.352420252977
-0.000301043723011
0.352528769392
-0.000340777147893
0.352649908581
-0.000380353824193
0.352783681588
-0.00041975619397
0.352930003403
-0.000458959232728
0.353088861366
-0.000497932132711
0.353260130208
-0.00053664360194
0.353443774317
-0.000575063624529
0.353639645678
-0.000613161891936
0.353847714886
-0.00065090598998
0.35406781251
-0.000688261413615
0.35429989849
-0.000725191702219
0.35454376751
-0.000761658399642
0.354799347333
-0.000797619945609
0.355066400197
-0.000833031479304
0.355344823926
-0.000867845539288
0.355634347015
-0.000902012643147
0.355934843855
-0.000935482902293
0.356246002759
-0.000968206643668
0.356567669985
-0.00100012528621
0.356899504885
-0.00103124033449
0.35724122053
-0.00106110187565
-0.00109257728113
0.357593237986
0.332260198332
-2.62661091831e-05
0.332278680974
-7.89098989407e-05
0.332309491188
-0.00013150358078
0.332352613418
-0.000184047674093
0.332408060306
-0.000236526162862
0.33247580045
-0.00028891827695
0.332555844618
-0.000341203114726
0.332648158376
-0.000393361756816
0.332752765917
-0.000445373619411
0.332869616715
-0.00049721190082
0.332998716649
-0.000548844886477
0.333139989091
-0.000600239729029
0.333293434062
-0.000651364929068
0.333458969914
-0.000702188769105
0.333636596773
-0.000752677146206
0.333826212737
-0.000802791307307
0.334027808896
-0.000852487960284
0.334241251156
-0.000901719711711
0.334466511542
-0.000950436308596
0.334703423497
-0.000998584867294
0.334951931705
-0.00104611030341
0.335211840186
-0.00109295452258
0.335483071406
-0.00113905693251
0.335765393214
-0.00118435365208
0.33605870902
-0.00122877803785
0.336362740964
-0.00127226259004
0.336677363986
-0.00131472543685
0.337002262259
-0.00135616593145
0.337337165601
-0.00139597613116
-0.00143800987742
0.337682567634
0.313612001257
-3.22071858112e-05
0.313629808131
-9.67188877086e-05
0.313659484971
-0.000161176485275
0.313701017717
-0.000225585299924
0.313754426911
-0.000289931790768
0.313819701273
-0.000354199647321
0.313896871428
-0.000418369678224
0.313985917901
-0.000482418074156
0.31408686561
-0.000546317705935
0.314199681146
-0.000610040221626
0.314324397541
-0.000673557445133
0.314460983874
-0.000736839551811
0.314609476865
-0.000799853099014
0.314769832339
-0.00086255880007
0.314942073216
-0.000924912270776
0.315126128324
-0.00098686462517
0.315322010654
-0.00104836414079
0.31552962603
-0.00110935551678
0.31574897716
-0.00116978012188
0.315979947625
-0.00122957468148
0.316222518884
-0.00128867199961
0.316476544538
-0.00134699999419
0.316741981013
-0.00140448252556
0.317018642614
-0.0014610385642
0.317306460626
-0.00151658304456
0.317605199248
-0.00157102832502
0.317914758173
-0.0016242682194
0.318234863565
-0.00167629958685
0.318565256555
-0.00172634684436
-0.00177931622614
0.318906534141
0.296010404568
-3.79092248584e-05
0.296027506813
-0.000113822117644
0.296056014067
-0.000189679891991
0.296095926655
-0.00026549983314
0.296147273422
-0.000341273412864
0.296210056153
-0.000416985626701
0.296284310984
-0.000492618409259
0.296370039524
-0.000568152239178
0.296467294982
-0.000643566568589
0.296576084246
-0.000718837508808
0.296696470398
-0.00079393660014
0.296828452487
-0.000868830089316
0.296972087073
-0.000943479696579
0.297127361057
-0.00101784233885
0.297294328529
-0.00109187093373
0.29747296456
-0.00116551384333
0.297663324668
-0.00123871521336
0.297865367065
-0.00131141337564
0.298079137421
-0.00138354066209
0.298304570524
-0.00145502239076
0.298541687838
-0.00152577783693
0.298790392508
-0.00159571981173
0.299050679549
-0.00166475577229
0.299322408186
-0.00173278712726
0.299605547876
-0.00179970900121
0.299899909596
-0.0018654141627
0.300205427433
-0.00192977120259
0.300521875028
-0.00199277445118
0.300849015878
-0.00205346810264
-0.00211788182952
0.301187551832
0.279396696841
-4.33710862562e-05
0.279413058334
-0.000130188449165
0.279440332696
-0.000216954787286
0.279478526563
-0.000303700288315
0.279527677571
-0.000390424692685
0.279587805974
-0.000477122135972
0.279658971347
-0.00056378350535
0.279741204635
-0.00065039575772
0.279834580397
-0.000736941749233
0.279939130505
-0.000823399837576
0.280054938795
-0.000909743928543
0.280182039483
-0.000995943336848
0.280320524803
-0.00108196302071
0.28047043105
-0.00116776225263
0.280631857189
-0.00125329424119
0.280804831497
-0.00133850507825
0.280989453382
-0.00142333400665
0.281185733628
-0.00150771238291
0.281393760585
-0.00159156371949
0.281613523282
-0.00167480305944
0.281845088775
-0.001757337836
0.282088417907
-0.00183906751813
0.282343552199
-0.00191988425959
0.282610415943
-0.00199967199276
0.282889020933
-0.00207830688035
0.283179242046
-0.00215565936101
0.283481050652
-0.00223157055303
0.283794281327
-0.00230602962554
0.284118715805
-0.00237788891782
-0.00245436745556
0.284455177062
0.26371539645
-4.85593612203e-05
0.263730941226
-0.000145736879086
0.263756859379
-0.000242873096771
0.263793171123
-0.000340016312764
0.263839926883
-0.000437179416862
0.263897166469
-0.000534366777971
0.263964962922
-0.000631577967212
0.264043369335
-0.000728808804149
0.264132481858
-0.000826051732704
0.264232368275
-0.000923294493007
0.264343146982
-0.00102051951873
0.264464898341
-0.00111770316981
0.26459775514
-0.00121481558264
0.264741802471
-0.00131181905974
0.264897180997
-0.00140866775164
0.2650639706
-0.00150530701961
0.265242315696
-0.00160167389703
0.265432285629
-0.00169769614397
0.265634019823
-0.00179329194424
0.265847572789
-0.00188836901701
0.266073067486
-0.0019828251051
0.266310533758
-0.00207654734754
0.266560071513
-0.00216941281832
0.266821669484
-0.00226128763177
0.267095397074
-0.00235202605373
0.267381192937
-0.00244147576148
0.267679079237
-0.0025294479147
0.26798895188
-0.00261592530023
0.268310632108
-0.00269955668636
-0.00278881233609
0.268645052392
0.248914183168
-5.34508481465e-05
0.248928833177
-0.000160393465185
0.248953264724
-0.000267308152261
0.248987506983
-0.000374266019986
0.249031620144
-0.000481295580007
0.249085661255
-0.000588416127377
0.249149723259
-0.000695642248575
0.249223889111
-0.000802984301479
0.249308283665
-0.000910448068609
0.249403011619
-0.0010180334432
0.249508224466
-0.00112573355395
0.249624044346
-0.00123353417289
0.249750642017
-0.00134141336133
0.249888151094
-0.00144934012038
0.250036757772
-0.00155727386305
0.250196600208
-0.00166516391255
0.250367876497
-0.00177294946941
0.250550723105
-0.00188055838261
0.250745338892
-0.00198790623447
0.25095185033
-0.00209489534138
0.251170443098
-0.00220141498558
0.251401221241
-0.00230734093331
0.251644347035
-0.00241253565192
0.251899889492
-0.0025168473046
0.252167977071
-0.00262010979669
0.25244862776
-0.00272214598837
0.25274192098
-0.00282273590836
0.253047830101
-0.00292185399659
0.253366219249
-0.00301793761906
-0.00312075360516
0.253698141055
0.234943647592
-5.80135340936e-05
0.234957309856
-0.000174061445675
0.234980100641
-0.0002901023556
0.235012060565
-0.000406232025807
0.235053262332
-0.000522499851777
0.235103783748
-0.000638943998753
0.235163736807
-0.000755596901298
0.235233231316
-0.00087248628284
0.235312416998
-0.000989634742692
0.235401433174
-0.00110705804504
0.23550046357
-0.00122476424208
0.235609674187
-0.00134275312872
0.235729277434
-0.00146101576159
0.235859460983
-0.00157953269087
0.236000461784
-0.00169827314376
0.236152481028
-0.00181719427775
0.236315774148
-0.00193624089417
0.236490547649
-0.00205534388665
0.236677062936
-0.00217441901801
0.236875522182
-0.00229336582751
0.237086178768
-0.00241206774813
0.23730921757
-0.00253039152503
0.237544874107
-0.00264818716883
0.237793298639
-0.00276528689562
0.238054696281
-0.00288150344973
0.238329169902
-0.00299663622921
0.238616871595
-0.00311043325213
0.238917857971
-0.00322285882432
0.239232059829
-0.00333213219957
-0.00344934724696
0.239560633995
0.221757171772
-6.22176076015e-05
0.221769762908
-0.000186660265061
0.221790774697
-0.000311119899974
0.221820257879
-0.000435723106124
0.221858296197
-0.000560543194384
0.221904984516
-0.000685640510927
0.221960452664
-0.000811069263282
0.222024836214
-0.000936878817101
0.222098310687
-0.00106311287707
0.222181050656
-0.0011898076974
0.222273274345
-0.00131699089688
0.222375192563
-0.00144468087232
0.22248706081
-0.00157288588834
0.222609120107
-0.00170160210901
0.222741658131
-0.00183081246958
0.22288493795
-0.00196048601317
0.223039273158
-0.00209057726425
0.223204941191
-0.00222102447563
0.223382269683
-0.00235174788732
0.223571540516
-0.00248264852401
0.223773081547
-0.00261360797124
0.223987165312
-0.00274448765183
0.224214107142
-0.00287512818888
0.224454154412
-0.00300534780236
0.224707593578
-0.00313494126755
0.224974625701
-0.00326368391895
0.225255486225
-0.0033912915138
0.225550328756
-0.00351771680841
0.225859160088
-0.00364095948803
-0.00377344632825
0.22618324362
0.209310749697
-6.60389122651e-05
0.209322193002
-0.000198110657637
0.209341297113
-0.000330229734726
0.209368121744
-0.00046255499538
0.209402760951
-0.000595187397985
0.209445326452
-0.000728213258844
0.209495965379
-0.000861712344731
0.209554838362
-0.000995759561395
0.209622145715
-0.00113042380367
0.209698095505
-0.00126576569699
0.20978293815
-0.00140183638508
0.20987692624
-0.00153867692739
0.209980355743
-0.00167631717949
0.210093518674
-0.00181477349919
0.210216752377
-0.00195404744835
0.210350381512
-0.00209412510098
0.210494779181
-0.00223497606982
0.210650295649
-0.00237655131275
0.21081732824
-0.00251878081569
0.210996242139
-0.00266157212457
0.211187444706
-0.00280480976649
0.211391301029
-0.00294835421178
0.21160821494
-0.00309204063453
0.211838531495
-0.00323567704993
0.212082632234
-0.00337904148851
0.212340823315
-0.00352188823912
0.212613435186
-0.00366390246
0.212900727529
-0.00380502376205
0.213202806048
-0.00394303476857
-0.004091678744
0.213521023278
0.197562849798
-6.94549016391e-05
0.197573082505
-0.000208351682007
0.19759017509
-0.000347329515572
0.197614195459
-0.000486583387092
0.19764524694
-0.000626245229424
0.197683456009
-0.000766430296652
0.197728985174
-0.000907247058846
0.197782016612
-0.00104879931077
0.197842772403
-0.0011911845955
0.19791148992
-0.00133449178806
0.197988448986
-0.00147879973822
0.198073940527
-0.00162417674955
0.198168299082
-0.00177067905019
0.198271865165
-0.00191834826583
0.198385024664
-0.00206720984576
0.19850816206
-0.00221727241231
0.198641709505
-0.00236852628947
0.19878608887
-0.00252094084226
0.198941767536
-0.0026744614865
0.199109193832
-0.00282900801082
0.199288856587
-0.0029844735675
0.199481215627
-0.00314072332734
0.199686766297
-0.00329759240943
0.19990596146
-0.00345488323738
0.200139282017
-0.00361236289329
0.200387148484
-0.00376976729129
0.200649999445
-0.00392675360603
0.200928212635
-0.00408324925879
0.201222007364
-0.00423682879693
-0.00440250444836
0.201532820502
0.186474270402
-7.24519615671e-05
0.186483250193
-0.00021733927325
0.186498259196
-0.000362345674179
0.186519371856
-0.000507703932619
0.186546699179
-0.000653579133412
0.186580379451
-0.000800118177997
0.186620587713
-0.000947461129949
0.186667524484
-0.00109574383956
0.186721430617
-0.00124509597354
0.186782569224
-0.00139563822972
0.186851246063
-0.00154748109126
0.1869277862
-0.00170072436648
0.187012558851
-0.00185545529968
0.187105948478
-0.00201174568602
0.18720838553
-0.00216965015247
0.187320309849
-0.00232920551729
0.187442209254
-0.00249042883382
0.187574573646
-0.0026533141351
0.187717938567
-0.00281782880845
0.187872833809
-0.00298391165571
0.188039830142
-0.0031514714649
0.188219483028
-0.00332038516622
0.188412384126
-0.00349049478798
0.188619094383
-0.00366160419358
0.188840204026
-0.00383347455686
0.189076255822
-0.00400582967015
0.189327805195
-0.00417830456472
0.189595358723
-0.00435081450755
0.189879271291
-0.00452074112331
-0.00470428993446
0.190181044741
0.176008015306
-7.50214959326e-05
0.176015717738
-0.000225050341679
0.176028602559
-0.000375238537455
0.176046749069
-0.000525858502391
0.176070273657
-0.000677110919757
0.176099323866
-0.00082917621487
0.176134084554
-0.000982228271934
0.176174770493
-0.00113643761048
0.176221637437
-0.00129196883231
0.176274969103
-0.00144897766017
0.176335092531
-0.00160760972876
0.176402361068
-0.00176800028343
0.176477173235
-0.0019302718509
0.176559951064
-0.00209453112846
0.176651163995
-0.00226086720535
0.176751301078
-0.00242935100867
0.176860900995
-0.00260003276377
0.176980516475
-0.00277293804558
0.177110747785
-0.00294806345083
0.177252202524
-0.0031253744246
0.177405531753
-0.00330480336357
0.177571385261
-0.00348624720115
0.177750450863
-0.00366956322205
0.177943402045
-0.0038545646281
0.178150940394
-0.0040410156618
0.178373734986
-0.00422863471377
0.178612469473
-0.00441704121759
0.178867787479
-0.00460614253107
0.179140194464
-0.0047931501078
-0.00499535202335
0.179431246225
0.166129159683
-7.71633422007e-05
0.166135583113
-0.000231481886933
0.166146339326
-0.000386002635202
0.16616151076
-0.000541038104945
0.166181217709
-0.000696825278697
0.166205613554
-0.000853579724391
0.166234889408
-0.00101151081493
0.166269269905
-0.00117082562722
0.166309020929
-0.00133172598424
0.166354441126
-0.00149440519182
0.166405873151
-0.00165904717725
0.166463692183
-0.00182582624523
0.166528319923
-0.00199490426788
0.166600209
-0.00216642730403
0.166679861301
-0.00234052398532
0.166767807737
-0.00251730515744
0.16686463134
-0.00269686074064
0.166970940605
-0.00287925496936
0.167087394759
-0.00306452135279
0.167214673242
-0.00325266025014
0.167353503176
-0.00344363652526
0.1675046245
-0.00363737641816
0.167668820081
-0.00383376205588
0.167846872375
-0.0040326259916
0.168039597433
-0.00423374447684
0.168247794579
-0.00443684049918
0.168472278847
-0.0046415288398
0.168713838893
-0.00484771229539
0.168973149867
-0.00505246311843
-0.00527401140394
0.169251799464
0.156804745301
-7.88830143549e-05
0.15680990708
-0.000236652423139
0.156818563259
-0.000394667254096
0.156830797672
-0.000553280479576
0.156846731452
-0.000712766631888
0.156866521012
-0.000873376893336
0.156890360508
-0.00103535716499
0.156918479954
-0.00119895242187
0.156951150776
-0.00136440310776
0.156988680459
-0.00153194193306
0.157031421175
-0.00170179351433
0.157079762642
-0.00187417434888
0.157134142723
-0.00204928931402
0.157195036669
-0.0022273279809
0.157262971133
-0.00240846327481
0.157338510235
-0.00259285145296
0.157422273212
-0.00278062842553
0.157514915311
-0.00297190415288
0.157617146761
-0.00316675694384
0.157729710551
-0.00336523088213
0.157853403236
-0.00356733299073
0.157989048699
-0.00377302921706
0.158137520031
-0.00398223744138
0.158299706617
-0.00419482045658
0.158476536637
-0.00441057856019
0.158668937614
-0.00462925019564
0.158877861948
-0.00485045663952
0.159104245858
-0.00507410438692
0.159348944415
-0.0052971654891
-0.00553863455703
0.159613559105
0.148003657578
-8.01936622594e-05
0.148007595438
-0.000240598321481
0.148014212695
-0.000401292490834
0.148023592682
-0.000562668555869
0.14803585602
-0.00072503751537
0.148051158255
-0.000888686518704
0.148069692683
-0.00105389842865
0.148091690278
-0.00122095701213
0.148117423448
-0.00139014251
0.148147203051
-0.0015617281415
0.148181384693
-0.00173598070142
0.1482203652
-0.00191316102058
0.148264590829
-0.00209351989102
0.148314550688
-0.00227729403566
0.148370787704
-0.00246470513187
0.148433889863
-0.00265596012449
0.148504503596
-0.00285124687199
0.148583320778
-0.00305072768234
0.148671092914
-0.00325453327157
0.148768616228
-0.00346276035838
0.148876747726
-0.00367546842559
0.148996386388
-0.00389267454404
0.149128489211
-0.00411434439766
0.149274045052
-0.00434038368662
0.149434091057
-0.00457062897698
0.149609681221
-0.00480484722768
0.149801901651
-0.00504268109394
0.150011836399
-0.00528404691987
0.150240530264
-0.00552586240557
-0.00578768046598
0.150489568537
0.139696533327
-8.11126253794e-05
0.139699300106
-0.000243373627171
0.139703965943
-0.000405966672591
0.139710612439
-0.000569322643503
0.139719356907
-0.000733789408822
0.139730352196
-0.000899688940238
0.139743787386
-0.0010673402458
0.139759889384
-0.0012370655973
0.139778926358
-0.00140918544567
0.139801206654
-0.00158401450987
0.139827083666
-0.00176186297103
0.139856954435
-0.00194303737679
0.139891265952
-0.00212783611523
0.139930511964
-0.00231654558875
0.139975242402
-0.0025094401755
0.140026059236
-0.00270678269642
0.14008362669
-0.00290881877076
0.140148662661
-0.00311576916694
0.140221949339
-0.00332782391967
0.140304324441
-0.00354514080286
0.140396694327
-0.00376784211273
0.140500021977
-0.00399600794534
0.140615338438
-0.00422966491334
0.140743723923
-0.00446877524741
0.14088631751
-0.00471322656925
0.141044292361
-0.00496282855085
0.141218867208
-0.0052172592945
0.14141126864
-0.00547645419268
0.141622727697
-0.00573732540671
-0.00601973656256
0.141854777698
0.131855652017
-8.16635816122e-05
0.131857316191
-0.000245045578703
0.13186014339
-0.000408801524042
0.131864210725
-0.000573397710654
0.131869630743
-0.0007392166115
0.131876550495
-0.00090661548036
0.131885152771
-0.00107594887326
0.131895657239
-0.00124757614784
0.131908323144
-0.00142185691618
0.131923450325
-0.00159914713902
0.131941384116
-0.00177980158386
0.131962515568
-0.00196417373903
0.131987285505
-0.00215261034028
0.132016183439
-0.0023454483027
0.132049756598
-0.00254301749986
0.132088610264
-0.00274564122056
0.132133416111
-0.00295362856807
0.132184906865
-0.00316726451367
0.132243884364
-0.00338680491196
0.13231121561
-0.00361247647179
0.132387844338
-0.00384447422807
0.13247478459
-0.00408295295304
0.132573129732
-0.0043280136081
0.132684039231
-0.00457968980777
0.132808745371
-0.00483793629696
0.132948534288
-0.00510262204066
0.13310474986
-0.00537347801412
0.133278755678
-0.00565046528869
0.133471960884
-0.00593053311873
-0.00623359023911
0.133685809392
0.124454852295
-8.1872216155e-05
0.124455491466
-0.000245692639384
0.124456608677
-0.000409926576322
0.124458277032
-0.000575073241804
0.124460601824
-0.000741548451131
0.124463721711
-0.000909742176786
0.124467809853
-0.00108004330585
0.124473075565
-0.0012528479416
0.124479765788
-0.00142855265972
0.124488166441
-0.00160755316483
0.12449860895
-0.00179024886922
0.124511472113
-0.0019770416913
0.124527184434
-0.00216832691424
0.124546223711
-0.00236449216575
0.124569125957
-0.00256592385268
0.124596489246
-0.00277300904454
0.124628981316
-0.00298612452644
0.124667337425
-0.00320562482508
0.124712367094
-0.00343183806961
0.124764954611
-0.00366506805467
0.124826069016
-0.0039055920404
0.124896762266
-0.00415365056928
0.12497817678
-0.00440943167825
0.125071538529
-0.00467305609289
0.125178163032
-0.00494456424855
0.125299441577
-0.00522390523272
0.125436841973
-0.00551088151195
0.125591863699
-0.00580549129189
0.125766066872
-0.0061047403857
-0.00642835273562
0.125960824344
0.117469438749
-8.17701397509e-05
0.117469143457
-0.000245404469401
0.117468695345
-0.000409485607107
0.117468159126
-0.000574544574083
0.117467635636
-0.000741032774826
0.117467255458
-0.000909369600349
0.117467179561
-0.00107997504138
0.117467604814
-0.00125328045508
0.117468762933
-0.00142971782568
0.117470923086
-0.00160971999282
0.117474397505
-0.00179372967307
0.117479546439
-0.00198219675408
0.117486778946
-0.00217556530615
0.117496555229
-0.00237427433688
0.11750939365
-0.00257876793049
0.117525876747
-0.00278949800627
0.117546656835
-0.00300691000957
0.117572458004
-0.00323143156869
0.117604084063
-0.00346346922099
0.117642423733
-0.00370341318559
0.117688459002
-0.00395163245157
0.117743266479
-0.00420846377971
0.117808023363
-0.00447419386472
0.117884008297
-0.00474904695821
0.117972609429
-0.00503317082381
0.118075321128
-0.00532662275959
0.118193746515
-0.00562931229167
0.118329544712
-0.00594129636528
0.118484480393
-0.00625968211718
-0.00660346154146
0.118659581731
0.110876083157
-8.13707796544e-05
0.110874947128
-0.000244273056723
0.110873094444
-0.000407638671737
0.110870578126
-0.000572034481377
0.110867490174
-0.000737951833683
0.110863948921
-0.000905835722404
0.110860100354
-0.00107613414175
0.110856124324
-0.00124931177226
0.110852235231
-0.00142583599199
0.110848683545
-0.00160617527109
0.110845760636
-0.00179081339987
0.110843801314
-0.00198024383589
0.110843188085
-0.00217495820796
0.110844356655
-0.00237544904622
0.110847804789
-0.00258222207214
0.110854094114
-0.00279579345642
0.110863853274
-0.00301667496226
0.110877781738
-0.00324536596114
0.11089666378
-0.00348235683949
0.110921377676
-0.00372813288805
0.110952905173
-0.00398316555602
0.110992331846
-0.00424789641619
0.111040854404
-0.00452272217707
0.111099786384
-0.0048079850637
0.111170575642
-0.00510396556473
0.111254811525
-0.00541086463975
0.111354257501
-0.00572876385782
0.11147078306
-0.00605782879284
0.111606587098
-0.00639549273146
-0.00676079698196
0.111763914873
0.104652777446
-8.0682143411e-05
0.10465084859
-0.000242344102736
0.104647684923
-0.000404475097582
0.104643346616
-0.000567697583043
0.104637924004
-0.000732531357172
0.104631523946
-0.000899438988178
0.104624275971
-0.00106888882861
0.104616336606
-0.001241375684
0.104607898621
-0.00141740027464
0.10459919185
-0.00159747105873
0.104590486962
-0.00178211018613
0.104582088887
-0.00197184752527
0.104574345222
-0.00216721585674
0.104567659995
-0.00236876526053
0.104562507331
-0.00257707073643
0.104559427748
-0.00279271518882
0.104559024056
-0.00301627262272
0.104561966571
-0.00324830956377
0.104569011761
-0.00348940302522
0.104581018361
-0.00374014033698
0.10459895709
-0.00400110489806
0.10462391136
-0.00427285120226
0.104657083662
-0.00455589469385
0.104699805343
-0.0048507063007
0.104753558484
-0.00515771781053
0.104820004947
-0.00547730975005
0.104901045941
-0.00580980412084
0.10499883577
-0.00615561642025
0.105116176067
-0.00651283224458
-0.0069037485764
0.10525912867
0.0987790392358
-8.0002095598e-05
0.0987766246935
-0.000239925351401
0.0987724902635
-0.000400337142095
0.0987666884864
-0.000561893411677
0.0987593087043
-0.000725150632682
0.0987504595737
-0.000890588547632
0.0987402649517
-0.00105869347497
0.0987288690431
-0.00122997775994
0.0987164438064
-0.00140497327665
0.0987032065027
-0.0015842309559
0.0986894121585
-0.00176831291648
0.0986753420494
-0.00195777392762
0.0986613074036
-0.00215317781341
0.0986476774605
-0.00235513176776
0.0986348957836
-0.00256428562733
0.0986234759568
-0.00278129212229
0.098613990132
-0.00300678322
0.0986070737069
-0.00324138993291
0.0986034462459
-0.00348577169854
0.0986039304887
-0.003740620648
0.0986094628003
-0.00400663263664
0.0986210955893
-0.00428447954775
0.0986400021667
-0.00457479539432
0.0986674851831
-0.00487818340745
0.0987049915989
-0.00519521651063
0.0987541463619
-0.00552645639817
0.0988167836435
-0.00587243313848
0.0988952467239
-0.00623407262484
0.0989928077927
-0.00661038859838
0.0991188794169
-0.00702981333044
0.396620758542
0.00455979218588
0.392221594634
0.00439912245501
0.387987587904
0.00423405902437
0.383922938341
0.00406460018421
0.380032175614
0.00389084337053
0.37631919789
0.00371292076311
0.372788306686
0.00353097818169
0.369443069948
0.00334517052945
0.366287512692
0.00315565010775
0.363324868316
0.00296257098074
0.360558876839
0.00276608918841
0.357992420152
0.00256637492841
0.355628916245
0.00236360257233
0.353470875231
0.00215795078051
0.351521397646
0.00194959389847
0.34978258612
0.00173871510273
0.348257210246
0.00152550292742
0.346946948331
0.00131015746379
0.345854207288
0.0010928786608
0.344980223049
0.000873871228704
0.344327038335
0.000653337450423
0.343895429755
0.000431486524072
0.343687075596
0.000208528781602
0.343702261623
-1.53170565086e-05
0.343942289542
-0.000239828924732
0.344406927768
-0.000464780956361
0.345097111473
-0.000689947955965
0.346012048761
-0.000915100905559
0.347152276485
-0.00114000904084
0.348516523297
-0.00136443869699
0.350104899287
-0.00158815665966
0.3519156093
-0.00181092587691
0.353948305604
-0.00203250943173
0.356200735404
-0.00225266679968
0.358672074139
-0.00247116175635
0.361359584085
-0.00268775233291
0.364261971066
-0.00290220455663
0.367376004219
-0.00311427697658
0.370699953257
-0.00332373951508
0.37423005041
-0.00353035483148
0.377964158974
-0.00373389395402
0.381898011195
-0.00393412441579
0.386029051089
-0.0041308209742
0.390352533625
-0.00432375749999
0.394865502597
-0.00451271406858
0.399562704226
-0.00469747390198
0.404440824946
-0.00487782172142
0.40949416066
-0.00505356295361
0.414718857304
-0.0052243945358
-0.00539082994561
0.420109542995
0.37441151789
0.00887131372321
0.370252622499
0.00855797662858
0.366250593965
0.00823613806759
0.362409414848
0.00790573093793
0.358733386162
0.0075669442531
0.355226209038
0.00722004264289
0.35189195261
0.00686532140178
0.348733973986
0.00650308443231
0.345756081571
0.00613363513498
0.342961297833
0.00575728276021
0.340353132849
0.0053743498236
0.337934256444
0.00498517069567
0.335707877301
0.0045900845401
0.333676303342
0.0041894347985
0.331842434541
0.00378357358158
0.330208185533
0.00337286469276
0.328776123215
0.0029576836362
0.327547761117
0.00253841203074
0.326525331139
0.00211543709051
0.325709936565
0.00168915002611
0.325103466225
0.00125995087723
0.324706580889
0.000828246419708
0.324520819649
0.000394453770111
0.324546371008
-4.10057688431e-05
0.324784431855
-0.000477702184089
0.325234701877
-0.000915204282829
0.325898026413
-0.00135307178535
0.326773621596
-0.00179086431031
0.327861954742
-0.00222813296728
0.329161755201
-0.00266442837532
0.330673106283
-0.00309929397971
0.332394258551
-0.00353227561987
0.334324880831
-0.00396291439855
0.336462759677
-0.00439075273585
0.338807169769
-0.00481533121019
0.341355403744
-0.00523619278024
0.344106347743
-0.00565287943352
0.347056782217
-0.00606493613345
0.350205207588
-0.00647190818246
0.353547952642
-0.00687334685493
0.357083104279
-0.00726880592385
0.36080656801
-0.00765784611564
0.364716020181
-0.0080400327739
0.368806961942
-0.00841493850656
0.37307664611
-0.00878214273188
0.377520171697
-0.0091412331329
0.382134467719
-0.00949180000323
0.386914215038
-0.00983348208959
0.391855742281
-0.0101656699021
-0.0104895425207
0.396954342393
0.353519598267
0.0129449935215
0.349590949063
0.0124865926889
0.345811287226
0.012015852202
0.342184363682
0.0115326144133
0.338714220309
0.011037154258
0.335404347126
0.0105298664829
0.332258551839
0.0100111935956
0.329279987036
0.00948159113412
0.32647220036
0.00894150478279
0.32383803862
0.00839137960585
0.321380790581
0.00783168628296
0.319102966967
0.00726292175865
0.317007550688
0.00668559217956
0.315096702545
0.00610020167018
0.31337310898
0.0055072621918
0.31183858199
0.00490730248673
0.310495496223
0.00430087029947
0.309345289347
0.00368852359316
0.308390007255
0.0030708282265
0.307630701137
0.00244835458336
0.307069088381
0.00182168504646
0.306705814413
0.00119141139561
0.306542267737
0.000558139521587
0.306578664277
-7.75182753438e-05
0.306816059207
-0.000714938480176
0.307254226879
-0.00135349517168
0.307893886453
-0.00199255066754
0.308734350337
-0.00263146450469
0.309775991295
-0.00326958405855
0.311017669434
-0.00390625704662
0.312459392683