/*--------------------------------*- C++ -*----------------------------------*\
| =========                 |                                                 |
| \\      /  F ield         | OpenFOAM: The Open Source CFD Toolbox           |
|  \\    /   O peration     | Version:  v1912                                 |
|   \\  /    A nd           | Website:  www.openfoam.com                      |
|    \\/     M anipulation  |                                                 |
\*---------------------------------------------------------------------------*/
FoamFile
{
    version     2.0;
    format      ascii;
    class       volVectorField;
    location    "87";
    object      U;
}
// * * * * * * * * * * * * * * * * * * * * * * * * * * * * * * * * * * * * * //

dimensions      [0 1 -1 0 0 0 0];


internalField   nonuniform List<vector> 
22000
(
(1.00000434335 -3.70559474097e-05 0)
(1.00003752865 -0.000111026385735 0)
(1.00010686457 -0.000184722707819 0)
(1.00021428187 -0.00025818834753 0)
(1.00035777545 -0.000331431679905 0)
(1.00053638034 -0.000404408492518 0)
(1.00075008891 -0.000477111336395 0)
(1.0009989815 -0.000549523963797 0)
(1.00128308121 -0.000621593569389 0)
(1.0016023054 -0.00069326708521 0)
(1.00195634382 -0.000764507652227 0)
(1.00234481789 -0.000835271890594 0)
(1.00276751349 -0.000905531290332 0)
(1.00322439761 -0.000975255747204 0)
(1.00371533579 -0.00104439899766 0)
(1.0042399011 -0.0011128693834 0)
(1.00479751343 -0.00118057486499 0)
(1.00538773646 -0.00124744067697 0)
(1.00601033031 -0.00131343844195 0)
(1.00666509782 -0.00137853145377 0)
(1.00735165772 -0.00144267176237 0)
(1.00806939869 -0.00150576515898 0)
(1.00881760141 -0.00156771390036 0)
(1.00959557897 -0.00162841462889 0)
(1.01040275108 -0.00168779459401 0)
(1.01123859895 -0.00174579130783 0)
(1.01210250444 -0.00180234309299 0)
(1.01299390328 -0.00185750351229 0)
(1.01391150469 -0.00191037617536 0)
(1.01485655713 -0.00196715508389 0)
(1.00000382911 -0.000108484111329 0)
(1.00003687085 -0.000325372393221 0)
(1.00010627612 -0.000541772183326 0)
(1.00021370309 -0.000757740616089 0)
(1.00035738624 -0.000973228166799 0)
(1.00053648951 -0.00118814327868 0)
(1.0007508784 -0.00140240457963 0)
(1.00100075311 -0.00161588669182 0)
(1.00128625531 -0.00182845846592 0)
(1.00160726529 -0.00204002817071 0)
(1.00196350835 -0.00225049736658 0)
(1.00235462609 -0.00245970086623 0)
(1.00278029895 -0.00266746900431 0)
(1.00324044884 -0.00287365421358 0)
(1.00373513661 -0.00307812304859 0)
(1.00426419441 -0.00328069602503 0)
(1.00482709894 -0.0034811744433 0)
(1.00542321606 -0.00367934912373 0)
(1.00605209711 -0.00387504473602 0)
(1.00671351849 -0.00406806911016 0)
(1.00740725849 -0.00425822103525 0)
(1.00813291952 -0.00444525385707 0)
(1.00888989158 -0.00462891662618 0)
(1.00967746223 -0.00480894770951 0)
(1.01049492359 -0.00498510514954 0)
(1.01134164099 -0.0051571505686 0)
(1.0122168788 -0.00532480854051 0)
(1.01312029876 -0.00548811051283 0)
(1.01404971298 -0.00564468658077 0)
(1.01501093561 -0.00580986351949 0)
(1.00000396838 -0.000176270557067 0)
(1.00003782121 -0.000528992053174 0)
(1.00010854561 -0.000881284295636 0)
(1.00021781738 -0.00123313957678 0)
(1.00036382596 -0.00158441633162 0)
(1.00054572182 -0.00193496576051 0)
(1.00076363075 -0.0022846139927 0)
(1.00101777744 -0.00263316748611 0)
(1.00130802149 -0.00298044887418 0)
(1.00163419716 -0.00332628188066 0)
(1.0019963451 -0.00367045080759 0)
(1.00239435861 -0.00401270355461 0)
(1.0028278663 -0.00435278992361 0)
(1.00329662988 -0.00469047620439 0)
(1.00380068152 -0.00502552191225 0)
(1.00433996077 -0.00535765442641 0)
(1.00491406514 -0.0056865675435 0)
(1.00552242256 -0.00601193517686 0)
(1.0061646161 -0.0063334223909 0)
(1.00684047492 -0.00665068336244 0)
(1.00754984201 -0.00696335577012 0)
(1.00829238464 -0.00727105856187 0)
(1.00906752897 -0.00757339259806 0)
(1.0098745824 -0.00786994539361 0)
(1.01071285139 -0.00816029118396 0)
(1.01158175239 -0.00844400401609 0)
(1.01248051833 -0.00872056741768 0)
(1.01340930279 -0.00898998564737 0)
(1.01436433559 -0.00924835905941 0)
(1.01535991508 -0.00952043347273 0)
(1.00000401696 -0.00024175010679 0)
(1.00003845861 -0.000725539489525 0)
(1.00011052448 -0.00120882147621 0)
(1.00022191124 -0.00169159112205 0)
(1.00037081464 -0.0021736842909 0)
(1.00055642004 -0.00265490257371 0)
(1.00077874696 -0.00313503847277 0)
(1.00103800626 -0.00361388109276 0)
(1.0013342614 -0.00409119211816 0)
(1.00166752575 -0.00456670103481 0)
(1.00203781092 -0.00504013179373 0)
(1.00244489421 -0.00551121351653 0)
(1.00288838905 -0.00597966147919 0)
(1.0033681772 -0.00644515347965 0)
(1.003884458 -0.00690732812999 0)
(1.00443730088 -0.00736579529722 0)
(1.00502637477 -0.00782014662109 0)
(1.00565114844 -0.00826995647613 0)
(1.0063112465 -0.00871477740634 0)
(1.00700654923 -0.00915413646966 0)
(1.00773696646 -0.00958753503208 0)
(1.00850223466 -0.010014446084 0)
(1.00930185483 -0.0104343186207 0)
(1.01013520336 -0.0108465727029 0)
(1.01100164243 -0.011250605942 0)
(1.011900677 -0.0116458052858 0)
(1.01283146552 -0.0120314338921 0)
(1.01379476419 -0.012407489549 0)
(1.01478463382 -0.0127685084509 0)
(1.0158266018 -0.0131491916928 0)
(1.00000411259 -0.000304756696459 0)
(1.0000392972 -0.00091464358353 0)
(1.00011285691 -0.00152395240526 0)
(1.00022653391 -0.00213273444351 0)
(1.00037848633 -0.00274082880461 0)
(1.00056789237 -0.00334803885548 0)
(1.00079488474 -0.00395414407385 0)
(1.00105978509 -0.00455889999582 0)
(1.00136266554 -0.00516204823161 0)
(1.00170349899 -0.00576331555361 0)
(1.00208232414 -0.00636240975117 0)
(1.00249905287 -0.00695900273141 0)
(1.00295348415 -0.00755272840416 0)
(1.00344564673 -0.00814318080136 0)
(1.00397581263 -0.00872992935456 0)
(1.00454408421 -0.00931251834668 0)
(1.00515017697 -0.00989046885946 0)
(1.00579364879 -0.0104632626307 0)
(1.00647424463 -0.011030340495 0)
(1.00719197158 -0.0115910953417 0)
(1.00794686029 -0.0121448827548 0)
(1.00873875644 -0.0126910171747 0)
(1.00956726426 -0.0132287822299 0)
(1.01043185797 -0.0137574223761 0)
(1.01133198615 -0.0142761489905 0)
(1.01226727416 -0.0147841586824 0)
(1.01323679091 -0.0152804791249 0)
(1.01424204902 -0.0157650936592 0)
(1.01527445161 -0.0162308515314 0)
(1.01637347362 -0.0167230305596 0)
(1.00000417499 -0.000365397813205 0)
(1.00003996612 -0.00109666232006 0)
(1.00011482155 -0.00182733390507 0)
(1.00023052244 -0.00255754073619 0)
(1.0003852469 -0.00328715584684 0)
(1.00057822701 -0.00401600280728 0)
(1.00080960694 -0.00474388022543 0)
(1.00107971876 -0.00547056369142 0)
(1.00138871818 -0.00619580542038 0)
(1.00173672359 -0.00691932034148 0)
(1.00212391888 -0.00764078644989 0)
(1.00255031884 -0.00835984548712 0)
(1.00301579429 -0.00907611190302 0)
(1.00352044423 -0.00978916292906 0)
(1.00406463309 -0.0104985368847 0)
(1.0046485829 -0.0112037201705 0)
(1.00527215733 -0.011904151225 0)
(1.00593508006 -0.0125992097029 0)
(1.00663726457 -0.0132882229418 0)
(1.00737887188 -0.0139704596475 0)
(1.00816006991 -0.0146451418295 0)
(1.00898082792 -0.015311438813 0)
(1.00984087055 -0.0159684759888 0)
(1.01073979776 -0.0166153257207 0)
(1.01167716352 -0.0172510085376 0)
(1.01265275624 -0.0178745191773 0)
(1.01366557301 -0.018484630558 0)
(1.01471802794 -0.0190813005656 0)
(1.01579850702 -0.01965556473 0)
(1.01696259119 -0.0202640272431 0)
(1.00000423567 -0.000423537044724 0)
(1.00004052755 -0.00127118696435 0)
(1.00011640518 -0.00211826798334 0)
(1.00023370163 -0.00296502516133 0)
(1.00039059616 -0.00381140259956 0)
(1.00058633656 -0.00465728508042 0)
(1.00082116179 -0.00550252167859 0)
(1.0010955261 -0.00634692561705 0)
(1.00140968797 -0.00719028018791 0)
(1.0017638514 -0.00803233358119 0)
(1.00215828028 -0.00887279715141 0)
(1.00259307893 -0.00971133864059 0)
(1.00306824393 -0.0105475806328 0)
(1.00358404043 -0.0113810848705 0)
(1.00414102028 -0.0122113512806 0)
(1.00473958806 -0.0130378117455 0)
(1.00537978007 -0.0138598394241 0)
(1.00606149143 -0.0146767410852 0)
(1.00678480968 -0.0154877593616 0)
(1.00755007011 -0.0162920634038 0)
(1.00835761168 -0.0170887554889 0)
(1.00920757475 -0.0178768638136 0)
(1.01009985618 -0.0186553497781 0)
(1.01103423863 -0.0194230990506 0)
(1.012010451 -0.0201789231361 0)
(1.01302850648 -0.0209215916214 0)
(1.01408735741 -0.0216495970986 0)
(1.01519043924 -0.0223628535366 0)
(1.016322877 -0.023050457691 0)
(1.01755799332 -0.0237810543827 0)
(1.00000425854 -0.000478990632449 0)
(1.00004078042 -0.00143765572706 0)
(1.00011716998 -0.00239583752166 0)
(1.00023528194 -0.00335393005953 0)
(1.00039334022 -0.0043119851949 0)
(1.00059067663 -0.00526997898618 0)
(1.00082760142 -0.0062278469767 0)
(1.00110463288 -0.007185490224 0)
(1.00142211753 -0.00814277570321 0)
(1.00178038317 -0.00909952304816 0)
(1.00217984287 -0.0100554976055 0)
(1.00262076266 -0.0110104032763 0)
(1.0031033199 -0.011963883954 0)
(1.00362797444 -0.0129155115923 0)
(1.00419547139 -0.0138647868527 0)
(1.00480639787 -0.0148111331172 0)
(1.0054609737 -0.0157539008649 0)
(1.00615929663 -0.0166923557632 0)
(1.0069016805 -0.017625674768 0)
(1.00768869771 -0.0185529354701 0)
(1.00852092747 -0.0194731216975 0)
(1.00939874487 -0.0203851180792 0)
(1.01032228194 -0.0212877177762 0)
(1.01129155833 -0.0221796145515 0)
(1.01230651487 -0.0230594027168 0)
(1.01336743727 -0.0239256157321 0)
(1.01447327321 -0.0247764488234 0)
(1.01562857378 -0.0256117606872 0)
(1.01681510335 -0.0264185884361 0)
(1.01812501558 -0.0272783145476 0)
(1.00000424966 -0.000531470655288 0)
(1.00004072322 -0.00159522343347 0)
(1.00011700488 -0.00265862525165 0)
(1.00023498453 -0.00372226698453 0)
(1.00039293526 -0.00478635040691 0)
(1.00059024493 -0.00585098936262 0)
(1.00082731369 -0.00691624972434 0)
(1.00110477538 -0.00798215286122 0)
(1.00142311172 -0.00904867483736 0)
(1.00178280588 -0.0101157340584 0)
(1.00218443567 -0.0111831855652 0)
(1.00262843357 -0.012250815983 0)
(1.00311515896 -0.0133183427213 0)
(1.00364527639 -0.0143853993745 0)
(1.00421974906 -0.0154515303146 0)
(1.00483938901 -0.0165161825747 0)
(1.00550465585 -0.0175787058971 0)
(1.00621591429 -0.0186383402887 0)
(1.00697376838 -0.0196942098615 0)
(1.00777908752 -0.0207453139383 0)
(1.00863274271 -0.0217905321928 0)
(1.00953539412 -0.0228286203919 0)
(1.0104874557 -0.02385821544 0)
(1.01148923863 -0.0248778265527 0)
(1.01254096718 -0.0258858308849 0)
(1.01364326627 -0.0268805172442 0)
(1.01479513808 -0.0278597645902 0)
(1.01600233407 -0.0288233555094 0)
(1.01724331856 -0.0297561608705 0)
(1.01862954729 -0.0307528622936 0)
(1.00000419716 -0.000580688796088 0)
(1.00004022474 -0.00174301169 0)
(1.0001156129 -0.00290517828363 0)
(1.00023224209 -0.0040680135749 0)
(1.00038846883 -0.00523191077009 0)
(1.00058378893 -0.00639715472039 0)
(1.00081870562 -0.00756397453512 0)
(1.00109396263 -0.00873255288027 0)
(1.00141017499 -0.00990302334549 0)
(1.00176798577 -0.0110754550459 0)
(1.00216814602 -0.0122498433754 0)
(1.00261127281 -0.0134261034552 0)
(1.00309794036 -0.0146040649637 0)
(1.0036290631 -0.0157834547159 0)
(1.00420587269 -0.0169638887093 0)
(1.00482945489 -0.018144865147 0)
(1.00550055561 -0.0193257636036 0)
(1.00621985089 -0.0205058320385 0)
(1.00698827982 -0.0216841774419 0)
(1.00780705384 -0.0228597558039 0)
(1.0086773864 -0.0240313743147 0)
(1.00960027805 -0.0251976854 0)
(1.0105764919 -0.0263571876456 0)
(1.01160670167 -0.0275082143326 0)
(1.01269148158 -0.0286489251861 0)
(1.01383187451 -0.0297773548164 0)
(1.01502702924 -0.0308910491697 0)
(1.01628395533 -0.031989692558 0)
(1.0175780327 -0.0330559067319 0)
(1.0190398908 -0.034198085393 0)
(1.00000409262 -0.000626328515619 0)
(1.00003926926 -0.00188007286549 0)
(1.00011289348 -0.00313390760598 0)
(1.00022684226 -0.00438893211425 0)
(1.00037957903 -0.00564576971776 0)
(1.00057070495 -0.00690492044802 0)
(1.00080082372 -0.00816682423819 0)
(1.00107079545 -0.00943187142902 0)
(1.00138138159 -0.0107003958456 0)
(1.00173340497 -0.0119726563587 0)
(1.00212781565 -0.0132488255792 0)
(1.00256544494 -0.0145289834147 0)
(1.00304711349 -0.0158131100701 0)
(1.00357401604 -0.0171010671865 0)
(1.00414767933 -0.0183925884345 0)
(1.00476948821 -0.0196872727358 0)
(1.00544050402 -0.0209845802662 0)
(1.00616175234 -0.0222838159003 0)
(1.00693455419 -0.0235841139782 0)
(1.00776051915 -0.0248844258016 0)
(1.00864126442 -0.0261835181917 0)
(1.00957820085 -0.027479966242 0)
(1.01057251465 -0.0287721496125 0)
(1.01162532534 -0.030058239486 0)
(1.01273765519 -0.031336185058 0)
(1.01391105078 -0.032603766657 0)
(1.01514490535 -0.0338581896289 0)
(1.01644752587 -0.0350990213024 0)
(1.01779159173 -0.0363065923895 0)
(1.01932610361 -0.0376032076715 0)
(1.00000393706 -0.000668108370098 0)
(1.00003779745 -0.00200557063038 0)
(1.00010871017 -0.00334341978828 0)
(1.0002185082 -0.0046830717246 0)
(1.00036578524 -0.00602542217681 0)
(1.00055027178 -0.0073712232403 0)
(1.00077267767 -0.00872116055607 0)
(1.00103398441 -0.0100758682104 0)
(1.00133511299 -0.0114359185367 0)
(1.00167708066 -0.0128018011407 0)
(1.00206104721 -0.0141739106592 0)
(1.00248806757 -0.0155525408036 0)
(1.00295922187 -0.0169378744876 0)
(1.00347600316 -0.0183299618775 0)
(1.00404025497 -0.019728707622 0)
(1.00465368858 -0.02113386318 0)
(1.00531771759 -0.0225450184154 0)
(1.00603376445 -0.0239615810589 0)
(1.00680358835 -0.0253827557919 0)
(1.00762925729 -0.0268075298766 0)
(1.00851285742 -0.0282346689876 0)
(1.00945627864 -0.0296627080767 0)
(1.01046120742 -0.0310899428499 0)
(1.01152928982 -0.0325144124461 0)
(1.01266207632 -0.0339338804915 0)
(1.01386170728 -0.0353458894733 0)
(1.01512794791 -0.0367473145817 0)
(1.01647040776 -0.0381375953123 0)
(1.01785961538 -0.0394947748741 0)
(1.01946151282 -0.0409550336994 0)
(1.00000372594 -0.000705787951969 0)
(1.00003579856 -0.00211876955523 0)
(1.00010300458 -0.00353248395655 0)
(1.00020712087 -0.00494869332878 0)
(1.00034690072 -0.00636859773406 0)
(1.00052221533 -0.00779323511966 0)
(1.00073387928 -0.00922357392336 0)
(1.00098299283 -0.0106605321499 0)
(1.00127063578 -0.0121049635502 0)
(1.00159802101 -0.0135576335558 0)
(1.0019665209 -0.0150192057078 0)
(1.00237742154 -0.0164902355536 0)
(1.00283207713 -0.017971157057 0)
(1.00333229968 -0.019462257371 0)
(1.0038802726 -0.0209636612146 0)
(1.00447806003 -0.0224753232672 0)
(1.00512746031 -0.0239970156222 0)
(1.00583033293 -0.0255283032916 0)
(1.00658892064 -0.0270685171981 0)
(1.00740579954 -0.0286167379091 0)
(1.00828357761 -0.0301717873491 0)
(1.00922468531 -0.0317322168957 0)
(1.01023137986 -0.0332962908056 0)
(1.0113059181 -0.0348619637827 0)
(1.01245048305 -0.0364268530297 0)
(1.01366790317 -0.037988292189 0)
(1.01495845275 -0.0395428471317 0)
(1.0163330391 -0.0410898214609 0)
(1.01776076456 -0.0426050261795 0)
(1.01942242895 -0.0442381911511 0)
(1.00000345777 -0.000739179789335 0)
(1.00003326293 -0.00221911332845 0)
(1.00009577218 -0.00370016273002 0)
(1.00019267426 -0.00518446706314 0)
(1.0003229019 -0.0066735625011 0)
(1.00048647731 -0.00816880427701 0)
(1.00068431191 -0.00967147673324 0)
(1.00091761692 -0.0111828172261 0)
(1.00118763134 -0.0127039978507 0)
(1.00149576672 -0.0142360980526 0)
(1.00184360928 -0.0157800904198 0)
(1.00223267912 -0.017336835347 0)
(1.00266461229 -0.0189070639069 0)
(1.00314155047 -0.0204913498912 0)
(1.00366602744 -0.0220900922992 0)
(1.00424047247 -0.0237035082013 0)
(1.00486708805 -0.0253316153977 0)
(1.00554819938 -0.0269742023346 0)
(1.00628656948 -0.0286307940423 0)
(1.00708532504 -0.0303006327434 0)
(1.00794764642 -0.0319826648508 0)
(1.00887656551 -0.0336755243919 0)
(1.00987498574 -0.0353775073917 0)
(1.01094586113 -0.037086541829 0)
(1.01209210294 -0.0388001509117 0)
(1.0133173321 -0.0405155034472 0)
(1.01462249849 -0.0422288965878 0)
(1.01601976566 -0.0439395022779 0)
(1.01747768509 -0.0456210200107 0)
(1.01918925541 -0.0474360986167 0)
(1.0000031388 -0.000768168703089 0)
(1.00003021525 -0.00230625140789 0)
(1.00008705245 -0.00384586602831 0)
(1.00017523182 -0.00538954987407 0)
(1.00029388875 -0.00693919879255 0)
(1.00044320202 -0.00849650905101 0)
(1.00062417092 -0.0100631066512 0)
(1.00083810781 -0.0116405769974 0)
(1.00108640411 -0.0132304418881 0)
(1.00137066354 -0.0148341297581 0)
(1.00169267781 -0.0164529621439 0)
(1.00205419457 -0.0180881492688 0)
(1.00245712961 -0.0197407684746 0)
(1.00290395406 -0.0214117330691 0)
(1.00339755083 -0.0231017735727 0)
(1.00394071584 -0.02481143125 0)
(1.00453606622 -0.0265410353767 0)
(1.00518641425 -0.0282906665549 0)
(1.00589507253 -0.0300601152527 0)
(1.00666575397 -0.0318488594055 0)
(1.00750225349 -0.0336560462412 0)
(1.00840825839 -0.0354804703541 0)
(1.0093873856 -0.0373205370981 0)
(1.01044336895 -0.0391742240323 0)
(1.01157995198 -0.0410390331554 0)
(1.01280164194 -0.0429120348046 0)
(1.01411022787 -0.0447893227352 0)
(1.01551907419 -0.0466699595557 0)
(1.01699719845 -0.0485257317384 0)
(1.01874657594 -0.0505312453739 0)
(1.00000276646 -0.0007927095472 0)
(1.00002667197 -0.00238004503432 0)
(1.00007692192 -0.00396935073471 0)
(1.00015496054 -0.00556357661546 0)
(1.00026014197 -0.00716499509911 0)
(1.0003928057 -0.00877566191473 0)
(1.0005540235 -0.0103975659925 0)
(1.00074519244 -0.0120326653054 0)
(1.00096784502 -0.0136828585043 0)
(1.00122376352 -0.0153499527943 0)
(1.00151492724 -0.0170356530846 0)
(1.00184329615 -0.0187415592815 0)
(1.0022110569 -0.0204691398262 0)
(1.00262100289 -0.0222196970282 0)
(1.00307635666 -0.0239943478346 0)
(1.003580273 -0.0257940184121 0)
(1.00413578421 -0.0276194157203 0)
(1.00474619987 -0.0294709837472 0)
(1.00541539897 -0.0313488552687 0)
(1.00614770211 -0.0332528267808 0)
(1.00694754816 -0.0351823351716 0)
(1.00781932161 -0.0371364284748 0)
(1.00876741108 -0.0391137165132 0)
(1.00979640259 -0.0411123208399 0)
(1.01091095985 -0.0431298153736 0)
(1.0121165711 -0.0451632600167 0)
(1.01341604487 -0.0472086353505 0)
(1.01482384904 -0.0492649339753 0)
(1.01631060686 -0.0513023059076 0)
(1.01808357689 -0.0535060159579 0)
(1.00000235179 -0.000812830026282 0)
(1.00002269157 -0.00244057482788 0)
(1.00006551245 -0.00407074144417 0)
(1.00013210471 -0.00570669897909 0)
(1.00022205644 -0.007351106131 0)
(1.00033586435 -0.00900638892229 0)
(1.00047465529 -0.0106749134389 0)
(1.00063989325 -0.0123590286766 0)
(1.00083323708 -0.0140610318252 0)
(1.00105662928 -0.0157831332169 0)
(1.00131221207 -0.017527449102 0)
(1.00160213404 -0.0192960015426 0)
(1.0019288338 -0.0210906877208 0)
(1.00229540841 -0.0229132431592 0)
(1.00270539814 -0.0247652237981 0)
(1.00316229648 -0.0266480017257 0)
(1.00366953922 -0.0285627298624 0)
(1.00423093005 -0.0305102899946 0)
(1.00485091553 -0.0324912383066 0)
(1.00553442902 -0.0345057789837 0)
(1.00628656609 -0.0365537361247 0)
(1.00711243633 -0.038634516037 0)
(1.00801724607 -0.0407470426134 0)
(1.00900649772 -0.0428896931362 0)
(1.01008586281 -0.0450602252059 0)
(1.01126188849 -0.0472557959684 0)
(1.01253857323 -0.0494723863626 0)
(1.01393137364 -0.0517089767283 0)
(1.01541375206 -0.0539344428536 0)
(1.0171941149 -0.0563430570346 0)
(1.00000189455 -0.000828626892027 0)
(1.00001831306 -0.00248812786741 0)
(1.00005296583 -0.00415050663612 0)
(1.00010696249 -0.00581955070429 0)
(1.00018013433 -0.00749830710978 0)
(1.000273131 -0.00918957612367 0)
(1.00038711003 -0.0108961061663 0)
(1.00052357733 -0.0126206451063 0)
(1.00068429934 -0.0143659010498 0)
(1.00087135707 -0.0161345060388 0)
(1.00108702755 -0.0179290128312 0)
(1.00133361977 -0.0197518954971 0)
(1.00161379797 -0.0216055130436 0)
(1.0019309323 -0.0234920722984 0)
(1.0022888447 -0.0254136153746 0)
(1.00269133414 -0.0273720183179 0)
(1.00314221701 -0.0293689477195 0)
(1.00364577691 -0.0314057978766 0)
(1.00420701556 -0.0334836300184 0)
(1.00483146685 -0.0356031460469 0)
(1.00552487744 -0.0377646575072 0)
(1.00629309132 -0.0399680392676 0)
(1.00714216274 -0.0422126484091 0)
(1.0080785592 -0.0444972430294 0)
(1.00910902961 -0.0468198943715 0)
(1.01024125228 -0.0491779862624 0)
(1.01148058798 -0.051567638395 0)
(1.01284331746 -0.053987894551 0)
(1.01430703685 -0.0564067993116 0)
(1.01607683872 -0.0590256341108 0)
(1.00000140714 -0.000840258359569 0)
(1.00001361083 -0.00252317630664 0)
(1.00003946061 -0.00420942228459 0)
(1.00007987449 -0.00590319259264 0)
(1.00013493516 -0.0076079179998 0)
(1.00020543697 -0.00932677226729 0)
(1.00029254854 -0.0110628898499 0)
(1.00039779308 -0.0128194213817 0)
(1.00052301644 -0.0145994878792 0)
(1.00067040352 -0.0164061478097 0)
(1.00084232864 -0.0182424048788 0)
(1.00104123002 -0.0201112094923 0)
(1.00126996976 -0.0220154114563 0)
(1.00153215417 -0.0239577205215 0)
(1.00183183782 -0.0259407030301 0)
(1.00217307635 -0.0279667886623 0)
(1.00256003064 -0.0300382197573 0)
(1.00299743892 -0.0321569761613 0)
(1.00349083388 -0.0343247072094 0)
(1.00404632297 -0.0365427061662 0)
(1.00467027969 -0.0388118766861 0)
(1.00536927165 -0.041132677629 0)
(1.00615021037 -0.0435050243536 0)
(1.00702055807 -0.0459281905732 0)
(1.00798819734 -0.0484007040281 0)
(1.0090619868 -0.0509203217315 0)
(1.01024880634 -0.0534834601644 0)
(1.01156558134 -0.0560893157603 0)
(1.01299535396 -0.0587056066982 0)
(1.01473514899 -0.0615382979533 0)
(1.00000089196 -0.00084793760599 0)
(1.00000863906 -0.00254635466648 0)
(1.00002518164 -0.00424853829661 0)
(1.0000512234 -0.00595907893721 0)
(1.00008709574 -0.00768177712232 0)
(1.00013372213 -0.00942016546168 0)
(1.00019225628 -0.0111777547812 0)
(1.0002642216 -0.0129581001164 0)
(1.00035152732 -0.0147647399476 0)
(1.00045642664 -0.016601158663 0)
(1.00058134035 -0.018470812468 0)
(1.00072879266 -0.0203771400117 0)
(1.00090181202 -0.0223235046252 0)
(1.00110420285 -0.0243131477304 0)
(1.0013401965 -0.0263491953196 0)
(1.00161404313 -0.0284346727641 0)
(1.00193019544 -0.030572449589 0)
(1.00229380384 -0.032765154307 0)
(1.00271089087 -0.0350151040355 0)
(1.00318809427 -0.0373242811902 0)
(1.00373237524 -0.0396942950928 0)
(1.00435099923 -0.0421263115785 0)
(1.00505172697 -0.04462093566 0)
(1.00584302396 -0.0471780943847 0)
(1.00673393783 -0.0497969208459 0)
(1.00773454435 -0.0524756977548 0)
(1.00885339371 -0.05521129819 0)
(1.01010785251 -0.0580031502088 0)
(1.01148769546 -0.0608191656663 0)
(1.01317712824 -0.0638672258752 0)
(1.00000035985 -0.000851921730168 0)
(1.00000347675 -0.00255843107655 0)
(1.00001031734 -0.00426911116522 0)
(1.00002137232 -0.00598892756554 0)
(1.00003723165 -0.00772205476234 0)
(1.00005893491 -0.00947238344568 0)
(1.00008758406 -0.0112437790557 0)
(1.00012466474 -0.0130401791989 0)
(1.00017212981 -0.0148655333147 0)
(1.00023227633 -0.0167237509798 0)
(1.00030752481 -0.0186187384528 0)
(1.00040043271 -0.0205544153662 0)
(1.00051415043 -0.0225346565404 0)
(1.00065263329 -0.0245632473097 0)
(1.00082023108 -0.0266439051611 0)
(1.00102132698 -0.0287802887442 0)
(1.00126060774 -0.0309759324681 0)
(1.00154357711 -0.0332341506693 0)
(1.00187667981 -0.035557987703 0)
(1.00226701394 -0.0379502015603 0)
(1.00272207172 -0.0404132247754 0)
(1.00324978034 -0.0429490626458 0)
(1.00385873404 -0.0455591539297 0)
(1.00455839819 -0.0482442297853 0)
(1.00535900439 -0.0510041930044 0)
(1.00627187199 -0.0538380196549 0)
(1.0073073715 -0.0567432012722 0)
(1.00848316105 -0.0597194628461 0)
(1.00979700156 -0.0627351945602 0)
(1.01141532933 -0.0659975400691 0)
(0.999999823173 -0.000852493746913 0)
(0.999998205741 -0.00256030408768 0)
(0.999995110702 -0.00427266822442 0)
(0.999990762609 -0.0059948456071 0)
(0.999985986412 -0.00773133748947 0)
(0.99998195717 -0.00948638448868 0)
(0.999979731117 -0.0112642121075 0)
(0.99998072483 -0.0130691337941 0)
(0.999986895771 -0.0149054913844 0)
(1.00000055035 -0.0167776262248 0)
(1.00002407593 -0.0186899199436 0)
(1.00006002905 -0.0206467892454 0)
(1.00011163285 -0.0226526118369 0)
(1.00018291966 -0.0247117212804 0)
(1.00027828018 -0.0268284619401 0)
(1.00040217367 -0.0290071869169 0)
(1.00055948059 -0.0312521441626 0)
(1.00075599755 -0.0335673748414 0)
(1.00099849621 -0.0359566960879 0)
(1.00129442585 -0.038423725946 0)
(1.00165171924 -0.0409718421723 0)
(1.00207891176 -0.0436040503987 0)
(1.00258540384 -0.0463228077425 0)
(1.00318164531 -0.0491298648868 0)
(1.00387905703 -0.0520261366844 0)
(1.0046902453 -0.0550115655067 0)
(1.00562758311 -0.0580845326501 0)
(1.00670920213 -0.0612452443028 0)
(1.0079416613 -0.0644625796199 0)
(1.00947101867 -0.067940408493 0)
(0.999999236173 -0.000849876541808 0)
(0.999992735091 -0.00255267526267 0)
(0.999979579346 -0.004260571774 0)
(0.99995971187 -0.0059791910486 0)
(0.999934118309 -0.00771332438711 0)
(0.999904034403 -0.00946742441947 0)
(0.999870438121 -0.0112459948233 0)
(0.999834675207 -0.0130536732328 0)
(0.999798675372 -0.0148951161034 0)
(0.999764681394 -0.016775023876 0)
(0.999734998958 -0.0186982276702 0)
(0.999712183115 -0.0206696324821 0)
(0.999699508467 -0.0226940823836 0)
(0.999700993339 -0.0247764220434 0)
(0.999720955155 -0.0269216101075 0)
(0.999763867652 -0.0291347229563 0)
(0.999834788938 -0.0314207435485 0)
(0.999939771971 -0.0337844592528 0)
(1.00008581524 -0.0362304498358 0)
(1.00028057756 -0.0387632013884 0)
(1.00053230303 -0.0413870421014 0)
(1.00085004275 -0.044106025439 0)
(1.00124394129 -0.0469236862235 0)
(1.00172538051 -0.0498429161681 0)
(1.00230693616 -0.0528657957475 0)
(1.00300251615 -0.0559934756808 0)
(1.00382666581 -0.0592256171197 0)
(1.00479877853 -0.0625629861344 0)
(1.00593398263 -0.0659769437921 0)
(1.00737310228 -0.069657354162 0)
(0.99999851816 -0.000844583109433 0)
(0.999986851669 -0.00253582659127 0)
(0.99996312433 -0.00423138869337 0)
(0.999927060446 -0.0059376385537 0)
(0.999880016473 -0.00766000433077 0)
(0.999823353161 -0.00940329722684 0)
(0.999757880636 -0.0111723653439 0)
(0.999684845553 -0.0129722405905 0)
(0.999606141995 -0.0148079356838 0)
(0.999523866077 -0.0166844890829 0)
(0.999440152567 -0.0186071402986 0)
(0.999357550308 -0.0205812273337 0)
(0.999279386351 -0.0226120291052 0)
(0.999209586105 -0.0247048344689 0)
(0.999152268197 -0.0268651616424 0)
(0.999111853945 -0.029098719612 0)
(0.999093579651 -0.0314112099899 0)
(0.999103765169 -0.0338081509671 0)
(0.999149594484 -0.0362949497667 0)
(0.999238853146 -0.0388769698885 0)
(0.999380004771 -0.0415595427142 0)
(0.999582543315 -0.044347783492 0)
(0.999857288383 -0.0472464483559 0)
(1.00021647395 -0.0502597550466 0)
(1.0006737347 -0.0533913579564 0)
(1.001244083 -0.0566441631457 0)
(1.00194459091 -0.0600201657232 0)
(1.0027944481 -0.0635223090829 0)
(1.00382520856 -0.0671257506195 0)
(1.00514295431 -0.0710341732779 0)
(0.999998586892 -0.000839893920201 0)
(0.99998442343 -0.00252304849235 0)
(0.999952571059 -0.00421169739256 0)
(0.99990203146 -0.00591222917589 0)
(0.999834732204 -0.00763011283954 0)
(0.999752397479 -0.00937024491892 0)
(0.999655738859 -0.0111376721173 0)
(0.999545949678 -0.012937790362 0)
(0.999424975044 -0.0147760829957 0)
(0.999294806075 -0.0166581264096 0)
(0.99915742229 -0.0185897610125 0)
(0.999015382591 -0.0205769970052 0)
(0.998872089185 -0.0226258638342 0)
(0.998731345598 -0.0247425076143 0)
(0.998597018209 -0.0269333977586 0)
(0.998473399957 -0.0292052853435 0)
(0.998365830455 -0.031565030983 0)
(0.998280795534 -0.0340194795431 0)
(0.998225561698 -0.0365755222508 0)
(0.998207930599 -0.039240125834 0)
(0.998236455057 -0.0420203013659 0)
(0.998320865698 -0.044922960264 0)
(0.99847237055 -0.047954811409 0)
(0.99870365432 -0.051122249057 0)
(0.999028882501 -0.0544313227417 0)
(0.999463394475 -0.0578877040864 0)
(1.00002576346 -0.0614968557782 0)
(1.00073211341 -0.0652663671014 0)
(1.00164002897 -0.0691832784811 0)
(1.00275279799 -0.0735210281638 0)
(1.01576308608 -0.00199088200222 -3.73593510975e-23)
(1.01663095692 -0.0020081573544 0)
(1.01751699726 -0.00202233067707 0)
(1.01842045421 -0.00203402159785 1.85449157433e-22)
(1.01934082974 -0.00204357442159 -1.87613471062e-22)
(1.02027739198 -0.00205117031094 7.93764327019e-23)
(1.02122927333 -0.00205701781873 -1.08781680972e-21)
(1.02219559546 -0.00206133993294 8.59411370934e-22)
(1.02317551357 -0.00206430715383 1.42402547264e-21)
(1.02416809729 -0.00206601567903 -1.43657074057e-21)
(1.02517240303 -0.0020666256259 0)
(1.02618752317 -0.00206631506535 0)
(1.02721259058 -0.0020652487151 -2.51511675446e-21)
(1.02824663189 -0.00206350371817 5.01672303888e-21)
(1.02928863735 -0.00206116874549 -2.81238630668e-21)
(1.03033755676 -0.002058329922 1.8707387238e-22)
(1.03139243152 -0.0020551117052 -1.69663521709e-21)
(1.03245228578 -0.00205159027341 1.48452104047e-21)
(1.0335161333 -0.00204783203079 0)
(1.03458286952 -0.00204384414233 0)
(1.03565141772 -0.00203965164633 0)
(1.03672064368 -0.0020352494926 1.42734746434e-22)
(1.0377895352 -0.00203066341223 7.5434793805e-23)
(1.0388570116 -0.00202588067288 -3.97308563164e-23)
(1.03992209469 -0.0020209312544 0)
(1.04098367492 -0.00201577322396 0)
(1.04204075834 -0.00201037153886 4.55246249985e-23)
(1.04309220704 -0.00200465305608 -9.47488315114e-23)
(1.04413696844 -0.00199854930349 -1.96689062671e-22)
(1.0451739808 -0.00199196290687 0)
(1.04620228182 -0.00198481738661 0)
(1.04722087146 -0.00197701009124 0)
(1.04822876848 -0.00196845524309 4.05766691997e-21)
(1.04922502126 -0.00195903234436 -3.58992330663e-21)
(1.05020870755 -0.00194865304004 -4.69283945332e-22)
(1.05117892213 -0.00193718220418 -7.26926047617e-21)
(1.05213480094 -0.0019245389504 7.20040097587e-21)
(1.05307546004 -0.00191058321757 0)
(1.05400010088 -0.00189524542329 0)
(1.05490787484 -0.00187840364397 0)
(1.05579803265 -0.00185998835082 0)
(1.05666982783 -0.00183989319467 0)
(1.05752257701 -0.00181804915873 0)
(1.05835559809 -0.00179435963073 0)
(1.05916831444 -0.00176875922749 0)
(1.05996009271 -0.00174117404069 0)
(1.06073038866 -0.00171153855813 0)
(1.06147876327 -0.0016798528771 2.2351267637e-21)
(1.06220417403 -0.0016455715588 -4.45165143424e-21)
(1.06290696931 -0.00161231287538 2.28264511701e-21)
(1.01591776436 -0.00588970458117 -7.04690186745e-23)
(1.01678028884 -0.00594391394361 0)
(1.0176626027 -0.00599006592873 0)
(1.01856312308 -0.00603103980445 1.14464139628e-22)
(1.019481781 -0.0060677336728 -6.41676615647e-23)
(1.02041830946 -0.00610038228268 2.77232286158e-22)
(1.0213716251 -0.00612912230077 -2.53382498029e-22)
(1.02234086205 -0.00615412149035 -1.03590229071e-21)