/*--------------------------------*- C++ -*----------------------------------*\
| =========                 |                                                 |
| \\      /  F ield         | OpenFOAM: The Open Source CFD Toolbox           |
|  \\    /   O peration     | Version:  v1912                                 |
|   \\  /    A nd           | Website:  www.openfoam.com                      |
|    \\/     M anipulation  |                                                 |
\*---------------------------------------------------------------------------*/
FoamFile
{
    version     2.0;
    format      ascii;
    class       volTensorField;
    location    "0.1";
    object      dU;
}
// * * * * * * * * * * * * * * * * * * * * * * * * * * * * * * * * * * * * * //

dimensions      [0 0 -1 0 0 0 0];


internalField   nonuniform List<tensor> 
22000
(
(9.1201493485333e-05 -0.00036369143909956 0 -1.484958262477e-07 -8.8748680353005e-05 0 0 0 0)
(0.00026459924268283 -0.00036454356011792 0 -8.2923225500815e-09 -0.00026478484114112 0 0 0 0)
(0.00044051504749241 -0.00036780092417419 0 6.6476455500551e-07 -0.00044336584782502 0 0 0 0)
(0.000621650605445 -0.00036685406948437 0 2.016076516535e-06 -0.00062354717639951 0 0 0 0)
(0.00080463280069953 -0.00037191055988194 0 3.1804308346537e-06 -0.00080326006893256 0 0 0 0)
(0.00098319899753983 -0.00036969881066043 0 4.2067108691221e-06 -0.00098464967410785 0 0 0 0)
(0.0011624236098756 -0.00036720516903712 0 7.2276424707339e-06 -0.0011635164510828 0 0 0 0)
(0.001344213522509 -0.00036837816027558 0 1.010102623271e-05 -0.0013440343863565 0 0 0 0)
(0.0015216267489745 -0.000364149619261 0 1.3101770838124e-05 -0.0015232070081784 0 0 0 0)
(0.001700933600219 -0.00036310390587022 0 1.7986648062125e-05 -0.001702299217382 0 0 0 0)
(0.0018801025096102 -0.00036054638429937 0 2.208003297224e-05 -0.0018793302431299 0 0 0 0)
(0.0020525648834453 -0.00035323266733156 0 2.7897069009365e-05 -0.0020556278278229 0 0 0 0)
(0.0022275255784062 -0.00035244827015873 0 3.4346315664386e-05 -0.0022274303117397 0 0 0 0)
(0.0023991160852335 -0.0003468464532152 0 4.1566572291294e-05 -0.002400021318445 0 0 0 0)
(0.0025631233605061 -0.00033798286068694 0 4.9758521799519e-05 -0.0025654378713019 0 0 0 0)
(0.0027287866797913 -0.00032721919123379 0 5.9234184106701e-05 -0.0027317583749774 0 0 0 0)
(0.0028881537879123 -0.00031818234403435 0 6.7631497349398e-05 -0.0028870625676432 0 0 0 0)
(0.0030390810015591 -0.00030282216719426 0 7.9852385652578e-05 -0.0030440633067911 0 0 0 0)
(0.0031887473126733 -0.00029365621542491 0 9.0155781134122e-05 -0.003185140774743 0 0 0 0)
(0.0033260501954692 -0.0002741919877399 0 0.00010425902834128 -0.0033327681071365 0 0 0 0)
(0.0034591794837185 -0.00026128564661482 0 0.00011578084642878 -0.0034564417012022 0 0 0 0)
(0.0035842811717977 -0.0002442461627055 0 0.0001325846135456 -0.003590873329866 0 0 0 0)
(0.0036991579079421 -0.00022549707482574 0 0.00014482713690321 -0.0036949477718506 0 0 0 0)
(0.0038044388687946 -0.0001997810569807 0 0.00016482530713087 -0.0038148980480062 0 0 0 0)
(0.003904790281956 -0.00019072418086468 0 0.00017802727114826 -0.0038944217058458 0 0 0 0)
(0.0039872563389007 -0.0001611887091552 0 0.00020052307466828 -0.0040039757979208 0 0 0 0)
(0.0040688989000465 -0.00015124786083652 0 0.00021295881161236 -0.004053337536286 0 0 0 0)
(0.0041321727618591 -0.00011312139620899 0 0.00023966464626138 -0.0041533195512898 0 0 0 0)
(0.0041894879034308 -0.00011092999789284 0 0.00025108337963456 -0.0041671642808644 0 0 0 0)
(0.0042415066330599 -7.4682871050186e-05 -7.4692528969585e-22 0.0002819411239225 -0.0042644204471612 0 0 0 0)
(9.0574007485295e-05 -0.0010716068508963 0 -1.9779862210526e-07 -8.9466694029693e-05 0 0 0 0)
(0.00026785401356891 -0.0010751394439888 0 8.747808255653e-07 -0.00026955855694178 0 0 0 0)
(0.00044861682757189 -0.0010886543873707 0 3.4425016137092e-06 -0.00044968552008898 0 0 0 0)
(0.00063171862000567 -0.0010940780494888 0 6.6613921718277e-06 -0.00063372002330194 0 0 0 0)
(0.00081339999638791 -0.0010941410338392 0 1.1007161263494e-05 -0.0008172263957197 0 0 0 0)
(0.00099939645028615 -0.0010928423856554 0 1.6836313416803e-05 -0.0010004912739494 0 0 0 0)
(0.0011860134053047 -0.001091707536758 0 2.5159591492688e-05 -0.0011853935843255 0 0 0 0)
(0.0013677225270318 -0.0010918244102152 0 3.449156902271e-05 -0.0013700753675391 0 0 0 0)
(0.0015531860046886 -0.0010901096854368 0 4.52971482413e-05 -0.0015532717515084 0 0 0 0)
(0.0017368657405956 -0.0010825257691585 0 5.9204857882147e-05 -0.0017386064287768 0 0 0 0)
(0.0019197652674352 -0.0010737553074006 0 7.3539644294357e-05 -0.0019205249435581 0 0 0 0)
(0.0021016560978733 -0.0010597332513733 0 9.1096760885772e-05 -0.00210426790128 0 0 0 0)
(0.0022822326590736 -0.0010456394299158 0 0.00011021526184153 -0.0022821285716858 0 0 0 0)
(0.0024607976830911 -0.0010253695374537 0 0.00013303676700293 -0.0024611039128024 0 0 0 0)
(0.0026338313770944 -0.0010086403086817 0 0.00015528576699712 -0.0026323966032079 0 0 0 0)
(0.0028003165880113 -0.00097832891557631 0 0.00018506212571889 -0.0028055829708389 0 0 0 0)
(0.0029706704377122 -0.00094955968740803 0 0.00021155734819572 -0.0029675107687472 0 0 0 0)
(0.0031292260335025 -0.00090712061243405 0 0.00024633453826068 -0.0031322169849772 0 0 0 0)
(0.0032864257829818 -0.00087825855974372 0 0.00027838225271473 -0.0032815363297445 0 0 0 0)
(0.0034286049471157 -0.00082697784025442 0 0.00031916855306728 -0.0034357883607168 0 0 0 0)
(0.0035725420575311 -0.00078634892913624 0 0.0003555931061293 -0.0035673546643692 0 0 0 0)
(0.0037005280992329 -0.00072399377531955 0 0.00040403064567885 -0.0037088010412827 0 0 0 0)
(0.0038281892405699 -0.00068373435385021 0 0.00044237976885141 -0.0038185171164914 0 0 0 0)
(0.0039373100042593 -0.00060975169985859 0 0.00050042001659208 -0.0039489566433753 0 0 0 0)
(0.0040476572616925 -0.00057669340926914 0 0.00053906538796789 -0.0040318713985746 0 0 0 0)
(0.0041270567810017 -0.000483859366575 0 0.00060624025719242 -0.0041495744745112 0 0 0 0)
(0.0042255484190858 -0.00045493361508163 0 0.0006444006225236 -0.0042010511011752 0 0 0 0)
(0.0042847521040058 -0.00034877664530124 0 0.0007224867690133 -0.0043103627098887 0 0 0 0)
(0.0043586837129724 -0.00033993585868693 0 0.00075677011847123 -0.0043254674364469 0 0 0 0)
(0.0044044812726802 -0.00021753818881723 -8.1404460902238e-22 0.00084861905509689 -0.0044315047443614 0 0 0 0)
(9.3723578620187e-05 -0.0017596431269085 0 1.7270112378488e-07 -9.2236526990851e-05 0 0 0 0)
(0.0002785331689283 -0.0017651544263558 0 1.5854641220096e-06 -0.00027694480056955 0 0 0 0)
(0.00046282871502577 -0.0017838808450013 0 5.6728290011446e-06 -0.0004651010687292 0 0 0 0)
(0.00065079121444346 -0.0017960572731806 0 1.1038199701282e-05 -0.00065352892830294 0 0 0 0)
(0.00084356067488754 -0.0017979262378974 0 1.9199553460475e-05 -0.00084443363065465 0 0 0 0)
(0.0010375689575211 -0.0018010388988112 0 3.0047295683267e-05 -0.0010363723833998 0 0 0 0)
(0.0012304404082808 -0.0018039738851097 0 4.2019448960556e-05 -0.0012292218376147 0 0 0 0)
(0.0014216026898444 -0.001798643456586 0 5.8194555213261e-05 -0.0014233514995579 0 0 0 0)
(0.001616752590164 -0.0017970223153665 0 7.567805293824e-05 -0.0016153124854092 0 0 0 0)
(0.0018096364681043 -0.0017907824844343 0 9.7969134353705e-05 -0.0018096418817723 0 0 0 0)
(0.0020028004116111 -0.0017818635298114 0 0.00012230933148005 -0.0020018893243277 0 0 0 0)
(0.002193862466566 -0.001758844777871 0 0.00015086805203458 -0.0021956865395854 0 0 0 0)
(0.0023890246066246 -0.001739303687638 0 0.00018161604503938 -0.0023861626445033 0 0 0 0)
(0.0025728320367733 -0.0017080680418606 0 0.00021899707598863 -0.0025774258808845 0 0 0 0)
(0.0027636179156073 -0.0016768951125104 0 0.00025611887336671 -0.0027614765213332 0 0 0 0)
(0.00294536748804 -0.0016296583914476 0 0.00030369002285341 -0.0029485390849621 0 0 0 0)
(0.0031242418967559 -0.001587480241997 0 0.00034815117863335 -0.0031221563951393 0 0 0 0)
(0.0032965718212126 -0.0015229717567194 0 0.00040465770139853 -0.0033020138795219 0 0 0 0)
(0.00346936039201 -0.0014732096174188 0 0.00045732087627301 -0.0034636697237278 0 0 0 0)
(0.003623470486349 -0.0013848974771824 0 0.00052459574521879 -0.0036326850717502 0 0 0 0)
(0.0037861089604214 -0.0013220617737697 0 0.00058321463258297 -0.0037762112740715 0 0 0 0)
(0.0039186426068037 -0.0012199395836562 0 0.00066336365984346 -0.0039336652741884 0 0 0 0)
(0.004070511148484 -0.0011584047896354 0 0.00072658054748119 -0.0040537868558578 0 0 0 0)
(0.0041771266997823 -0.001028737670614 0 0.00082138531257271 -0.0041986510092184 0 0 0 0)
(0.004312545208999 -0.00097022169970449 0 0.00088503662563835 -0.0042903518971175 0 0 0 0)
(0.0043930070419765 -0.00081837588478178 0 0.00099678760447345 -0.0044242147403232 0 0 0 0)
(0.0045168126665106 -0.00077567069172968 0 0.0010595899499443 -0.0044811646889102 0 0 0 0)
(0.004565212642504 -0.0005963309572244 0 0.0011898117923152 -0.004608677376751 0 0 0 0)
(0.004675449394409 -0.0005813976719165 0 0.0012445465207636 -0.0046215956559065 0 0 0 0)
(0.004707659127317 -0.00037186126222154 1.7550283088387e-21 0.001399398513314 -0.004748028008896 0 0 0 0)
(9.7019498748888e-05 -0.0024265354425006 0 -3.7465131213003e-08 -9.5490441545253e-05 0 0 0 0)
(0.0002880640357405 -0.0024433115526838 0 2.4432471967287e-06 -0.00028706513576364 0 0 0 0)
(0.00048311810733311 -0.0024703811378552 0 5.9825565588651e-06 -0.00048441630153233 0 0 0 0)
(0.00068101847414951 -0.0024859833163854 0 1.4401426947919e-05 -0.00068186057124514 0 0 0 0)
(0.00088286951401508 -0.0024986657147556 0 2.426788023037e-05 -0.00088164856984023 0 0 0 0)
(0.0010829030023118 -0.0025045486463326 0 3.7444197143136e-05 -0.0010845415665168 0 0 0 0)
(0.0012888656547936 -0.0025114538830924 0 5.27107811401e-05 -0.0012866340603485 0 0 0 0)
(0.0014907559814086 -0.0025080971985189 0 7.3730643745526e-05 -0.0014934530907738 0 0 0 0)
(0.0016985695603493 -0.0025070998771205 0 9.6060109375583e-05 -0.0016981674571347 0 0 0 0)
(0.0019072133735854 -0.0025006127568875 0 0.0001255825503177 -0.0019076157590429 0 0 0 0)
(0.0021130361983138 -0.0024899364748185 0 0.00015644024687115 -0.0021125342124601 0 0 0 0)
(0.0023182886978338 -0.0024690937875753 0 0.00019602582745448 -0.0023229120709496 0 0 0 0)
(0.0025311397382137 -0.002445659359788 0 0.00023645154062484 -0.0025283232563322 0 0 0 0)
(0.002732724727345 -0.0024018640819406 0 0.00028599148395486 -0.0027365542590667 0 0 0 0)
(0.0029430875337869 -0.0023693467366518 0 0.00033776599033391 -0.0029367829495834 0 0 0 0)
(0.0031365978715309 -0.0023008854701654 0 0.00039924244532052 -0.0031430620159355 0 0 0 0)
(0.0033392889215182 -0.0022456740239634 0 0.00046056453186015 -0.0033348293038166 0 0 0 0)
(0.0035278618224932 -0.0021593478088947 0 0.0005373090595199 -0.0035349366149953 0 0 0 0)
(0.0037243309286428 -0.0020906552030165 0 0.00060766954482711 -0.0037141676840993 0 0 0 0)
(0.0038884147537644 -0.0019726550249936 0 0.00070106242842043 -0.0039035541587147 0 0 0 0)
(0.0040793041650988 -0.0018895578798154 0 0.00077940462013832 -0.0040637873431148 0 0 0 0)
(0.0042239395651343 -0.001741521848643 0 0.00089101850494158 -0.0042443638105972 0 0 0 0)
(0.0044052142402716 -0.0016551793680716 0 0.00097594849461029 -0.0043803058299105 0 0 0 0)
(0.004515743336406 -0.0014767377049175 0 0.0011081493434282 -0.0045475307383755 0 0 0 0)
(0.0046879192792973 -0.0014030255305946 0 0.0011962278565659 -0.0046519534373414 0 0 0 0)
(0.0047643514368009 -0.0011829753084591 0 0.0013523233081138 -0.0048104195436933 0 0 0 0)
(0.0049301215065262 -0.0011306347651421 0 0.0014371698472395 -0.0048739890261329 0 0 0 0)
(0.0049599538234809 -0.00086337591503286 0 0.0016226135130828 -0.0050285090431031 0 0 0 0)
(0.005123741621133 -0.00085034126038488 0 0.0016973899999121 -0.0050395859720733 0 0 0 0)
(0.0051462317244965 -0.00054418156112388 0 0.0019172923573911 -0.0051981264243071 0 0 0 0)
(0.00010200492030562 -0.0030845154283603 0 -2.637388997602e-07 -9.9431145565011e-05 0 0 0 0)
(0.00029932771857013 -0.0031120973553927 0 2.8763657618568e-06 -0.00030099738641606 0 0 0 0)
(0.00050421121578414 -0.0031510453554991 0 7.315359760577e-06 -0.00050479588817746 0 0 0 0)
(0.00071402468913481 -0.0031716149095893 0 1.5999178629509e-05 -0.00071340496559783 0 0 0 0)
(0.00092331444529551 -0.003192427788601 0 2.6198131014236e-05 -0.00092429236846759 0 0 0 0)
(0.0011358343550829 -0.0032034514207173 0 4.2121735518191e-05 -0.0011383032303945 0 0 0 0)
(0.0013558370216115 -0.0032198218111159 0 5.9898876959953e-05 -0.0013534249779738 0 0 0 0)
(0.0015713706587835 -0.0032234257414138 0 8.3771421298361e-05 -0.0015734650602533 0 0 0 0)
(0.0017958456710224 -0.0032306880938337 0 0.00011164407949576 -0.0017938502121724 0 0 0 0)
(0.0020183147709652 -0.0032251212128597 0 0.00014548852779041 -0.0020198533174765 0 0 0 0)
(0.0022460554292419 -0.0032192319323819 0 0.00018193939318049 -0.0022430006398098 0 0 0 0)
(0.0024701138849589 -0.0031979935407726 0 0.00022951790920151 -0.0024724884556413 0 0 0 0)
(0.0026997689781603 -0.0031710089622226 0 0.00027759273338666 -0.0026965899189094 0 0 0 0)
(0.0029227671172095 -0.0031216273661265 0 0.00033818019801198 -0.0029277929340665 0 0 0 0)
(0.0031548225879868 -0.0030838099849364 0 0.00039937947509942 -0.0031489566971128 0 0 0 0)
(0.0033693634174587 -0.003006906239044 0 0.00047578090457506 -0.0033780568053085 0 0 0 0)
(0.0036009573230953 -0.002943226323812 0 0.00055057420117449 -0.0035923409669513 0 0 0 0)
(0.0038046164860488 -0.0028353042413637 0 0.0006463994564183 -0.0038172137703025 0 0 0 0)
(0.0040347620838194 -0.0027483999942716 0 0.00073127373011486 -0.004019165689061 0 0 0 0)
(0.0042162933861946 -0.0025944866093526 0 0.0008495388457249 -0.0042361179489001 0 0 0 0)
(0.0044418379433605 -0.0025008647514957 0 0.00094660473488944 -0.004418886183537 0 0 0 0)
(0.004597221211521 -0.0023144167652596 0 0.0010883666174567 -0.0046281144140363 0 0 0 0)
(0.0048200230217231 -0.0022065566360813 0 0.001194156975639 -0.0047839313470348 0 0 0 0)
(0.0049374541817435 -0.0019680777177518 0 0.001362469138568 -0.0049842201177528 0 0 0 0)
(0.0051553499968702 -0.0018792322064452 0 0.0014731095505999 -0.0051018909522607 0 0 0 0)
(0.0052247088609385 -0.001586072028301 0 0.0016748844331268 -0.0052957241461574 0 0 0 0)
(0.0054496374798492 -0.0015295459788001 0 0.0017816628475944 -0.0053671985446449 0 0 0 0)
(0.0054631058431822 -0.0011686146600518 0 0.0020222268254259 -0.0055579680189202 0 0 0 0)
(0.0056923145619307 -0.0011673182041693 0 0.0021171174099643 -0.0055694500826724 0 0 0 0)
(0.005698169659342 -0.00074796274966282 -4.181591058469e-21 0.0024036631102979 -0.0057688306573162 0 0 0 0)
(0.00010559829172164 -0.0037354221969237 0 -6.3954319069188e-08 -0.0001031628375955 0 0 0 0)
(0.00031277114779689 -0.0037684846140715 0 2.336061171933e-06 -0.0003138293077254 0 0 0 0)
(0.00052598645468036 -0.00381859238246 0 7.970433154112e-06 -0.00052557601782796 0 0 0 0)
(0.00074285190225882 -0.0038569911809184 0 1.6676006760703e-05 -0.00074516823220961 0 0 0 0)
(0.00096811755091585 -0.003887288621871 0 2.7452931042392e-05 -0.00096668564297482 0 0 0 0)
(0.0011929238889759 -0.0039069104318714 0 4.3768581541863e-05 -0.0011931830987479 0 0 0 0)
(0.0014249242737535 -0.0039334986642585 0 6.3174504592476e-05 -0.0014243493508936 0 0 0 0)
(0.0016596486472526 -0.0039472517995488 0 8.9189135617802e-05 -0.0016587629340791 0 0 0 0)
(0.0019000730124937 -0.0039656595402489 0 0.00011834362316119 -0.001897994597692 0 0 0 0)
(0.0021367413677018 -0.0039679980754277 0 0.00015622551866394 -0.0021409121898618 0 0 0 0)
(0.00238742047291 -0.0039686596148066 0 0.0001967050819084 -0.0023844502815298 0 0 0 0)
(0.0026306518569962 -0.0039508255373608 0 0.00024944527541414 -0.002634102472915 0 0 0 0)
(0.0028857688298615 -0.0039326401682164 0 0.00030271690762734 -0.0028811210881261 0 0 0 0)
(0.0031302453384475 -0.003879199779459 0 0.00037260362122387 -0.0031380486489037 0 0 0 0)
(0.0033920585597211 -0.003839705103314 0 0.00044123307448681 -0.0033842385803198 0 0 0 0)
(0.0036299305135392 -0.0037489170127005 0 0.00053014367915986 -0.0036408956270385 0 0 0 0)
(0.0038959433419698 -0.0036798022768757 0 0.00061402209864886 -0.0038807286131665 0 0 0 0)
(0.0041173850913852 -0.0035530907342772 0 0.00072707857243138 -0.0041370263691526 0 0 0 0)
(0.0043870243029113 -0.0034582164612874 0 0.00082590893913009 -0.0043656037949657 0 0 0 0)
(0.0045908139227256 -0.0032772638515959 0 0.00096467507201664 -0.0046176651985518 0 0 0 0)
(0.0048582856201384 -0.0031690406986966 0 0.0010779763205765 -0.0048268129620349 0 0 0 0)
(0.005031237439114 -0.0029332382335072 0 0.0012478464589845 -0.0050708540962693 0 0 0 0)
(0.0052991795498839 -0.0028172919567144 0 0.0013723800822738 -0.0052503158217709 0 0 0 0)
(0.0054255021760066 -0.0025143099658942 0 0.0015764153036805 -0.0054901976221699 0 0 0 0)
(0.0057065381679769 -0.0024192423482537 0 0.0017080298736392 -0.0056280125959636 0 0 0 0)
(0.0057703057358998 -0.0020483462685579 0 0.0019540751082396 -0.0058647602810048 0 0 0 0)
(0.0060626092881188 -0.0019860389364563 0 0.0020813884195985 -0.0059490256080185 0 0 0 0)
(0.006053761595588 -0.0015229576110976 0 0.0023778249159519 -0.0061860056925032 0 0 0 0)
(0.0063672816631743 -0.0015379348440448 0 0.0024934470191167 -0.0061989991928713 0 0 0 0)
(0.0063592850891329 -0.00099786220801167 1.3624657826771e-20 0.0028485797398437 -0.0064515905841857 0 0 0 0)
(0.00010901884785608 -0.0043712768675394 0 -2.4227269162602e-07 -0.00010632260082431 0 0 0 0)
(0.00032417099858656 -0.0044154197767106 0 2.3615182312721e-06 -0.00032464865014645 0 0 0 0)
(0.00054842749403943 -0.0044817553570947 0 7.1081201864827e-06 -0.00054652770466632 0 0 0 0)
(0.00077405520158693 -0.0045326201747853 0 1.5183446710081e-05 -0.00077603807318314 0 0 0 0)
(0.0010070582029714 -0.0045746687257656 0 2.5945843144954e-05 -0.0010069647225442 0 0 0 0)
(0.0012461392231654 -0.0046151041621503 0 4.1885624274283e-05 -0.0012476776506858 0 0 0 0)
(0.0014958948230488 -0.0046557822260998 0 6.0630486236127e-05 -0.0014917955372822 0 0 0 0)
(0.0017417337696713 -0.0046841375621804 0 8.6766962069279e-05 -0.0017444730601626 0 0 0 0)
(0.0020026844680244 -0.0047175222380781 0 0.00011576310823248 -0.0019993664509141 0 0 0 0)
(0.0022599054343537 -0.0047253106176006 0 0.00015454253132387 -0.0022632351153465 0 0 0 0)
(0.0025334817846767 -0.0047399807302013 0 0.00019684977929141 -0.0025287255984311 0 0 0 0)
(0.0027969696073551 -0.0047293687387472 0 0.00025166063225476 -0.0028022248910275 0 0 0 0)
(0.0030794625859292 -0.0047246910867269 0 0.00030920146310719 -0.0030727001740404 0 0 0 0)
(0.0033497121427748 -0.0046725971224268 0 0.00038402734788277 -0.0033568867871386 0 0 0 0)
(0.0036404753547956 -0.0046338745446675 0 0.00045680423631221 -0.0036295575571452 0 0 0 0)
(0.0039020452198834 -0.0045371320912978 0 0.00055516147614777 -0.0039171568438295 0 0 0 0)
(0.0042079652296706 -0.0044720699150059 0 0.00064682788588739 -0.0041890902316159 0 0 0 0)
(0.0044574514881633 -0.0043293467592617 0 0.00077144991155816 -0.0044800065337193 0 0 0 0)
(0.0047668965770047 -0.0042292937267513 0 0.00088170031317388 -0.0047385738145293 0 0 0 0)
(0.0049930638448415 -0.0040156085934418 0 0.0010381154622964 -0.0050306338261419 0 0 0 0)
(0.0053142178446225 -0.0038971207985687 0 0.0011663426421784 -0.0052700297357322 0 0 0 0)
(0.005504264146479 -0.0036188978656778 0 0.0013591251188719 -0.0055590138248055 0 0 0 0)
(0.0058320334846895 -0.0034981133513224 0 0.0015010738415897 -0.0057675322937449 0 0 0 0)
(0.005971193829574 -0.0031311485631671 0 0.0017383610611635 -0.0060535740023054 0 0 0 0)
(0.0063185881542442 -0.0030325571046572 0 0.0018882546599889 -0.006217649032253 0 0 0 0)
(0.0063747371385255 -0.0025744810094841 0 0.0021769274296039 -0.0065025471318032 0 0 0 0)
(0.0067545306652714 -0.0025183272631699 0 0.0023242791732299 -0.0066054973087266 0 0 0 0)
(0.0067316938601279 -0.0019379750017995 0 0.0026748543514228 -0.0069003842963449 0 0 0 0)
(0.0071416180534357 -0.00198439785035 0 0.0028101345305457 -0.006917337139298 0 0 0 0)
(0.0071178118846243 -0.0013037296612699 -9.8225514743794e-21 0.0032382192143609 -0.0072392016672356 0 0 0 0)
(0.00011178759090813 -0.0049907287742621 0 -9.7372312964847e-08 -0.00010875667456579 0 0 0 0)
(0.00033421207511346 -0.0050505442558527 0 1.4686696469174e-06 -0.00033406323078133 0 0 0 0)
(0.00056353114315873 -0.0051332136701838 0 5.0437090764138e-06 -0.00056308993646598 0 0 0 0)
(0.00079791266040437 -0.0051979161994252 0 1.1069573197257e-05 -0.00080112146019669 0 0 0 0)
(0.0010458684352461 -0.0052605756475061 0 2.0213467669612e-05 -0.00104315938599 0 0 0 0)
(0.0012940657743317 -0.0053186959245161 0 3.5590526493829e-05 -0.0012958085025271 0 0 0 0)
(0.0015559186226866 -0.0053799339329863 0 5.0777506767183e-05 -0.0015530607341215 0 0 0 0)
(0.0018202772336706 -0.0054250005574266 0 7.5419468180718e-05 -0.0018220748772797 0 0 0 0)
(0.0020976323187194 -0.0054759190445474 0 0.00010240444369353 -0.0020928192886742 0 0 0 0)
(0.0023731236997094 -0.005508552493487 0 0.00013945654959084 -0.0023782798083037 0 0 0 0)
(0.0026704557649518 -0.005537254284485 0 0.0001803595262994 -0.0026646389746704 0 0 0 0)
(0.0029579340402657 -0.0055339321901558 0 0.00023367887626996 -0.0029642565680036 0 0 0 0)
(0.0032712286643125 -0.0055467493278905 0 0.0002917120941735 -0.0032616859589237 0 0 0 0)
(0.0035602686908584 -0.0054995975843327 0 0.00036719347712011 -0.0035726557106576 0 0 0 0)
(0.0038902988555965 -0.0054698038726305 0 0.00044200029706032 -0.0038761654274202 0 0 0 0)
(0.0041829569082482 -0.0053765948486932 0 0.0005442857318907 -0.0041986894402883 0 0 0 0)
(0.0045255370798403 -0.0053170944895436 0 0.000640774626244 -0.00450390726112 0 0 0 0)
(0.0048011442567145 -0.0051516591269289 0 0.00077227563289298 -0.0048324386777819 0 0 0 0)
(0.005162989938265 -0.0050597308112145 0 0.00089268973488005 -0.0051274542626085 0 0 0 0)
(0.0054189085566355 -0.0048226874131768 0 0.0010590781901371 -0.0054612063086777 0 0 0 0)
(0.0057923102288477 -0.0047051835023602 0 0.001203041048134 -0.005739009937906 0 0 0 0)
(0.0060050525034821 -0.0043796191403815 0 0.0014087092341454 -0.0060747264332235 0 0 0 0)
(0.0064022977990877 -0.0042550745811215 0 0.0015741877711059 -0.0063196016981598 0 0 0 0)
(0.0065518244002008 -0.0038227296570122 0 0.0018278471321081 -0.0066547180233955 0 0 0 0)
(0.0069820023475423 -0.003724227927073 0 0.0020109900472678 -0.0068579075174402 0 0 0 0)
(0.0070381490430514 -0.0031754597077444 0 0.0023174829416005 -0.007191857755762 0 0 0 0)
(0.0075105425599113 -0.0031417656113669 0 0.0025140648109358 -0.0073306597600958 0 0 0 0)
(0.0074667480271895 -0.0024287358740125 0 0.0028796364092153 -0.0076757393177253 0 0 0 0)
(0.0080050253762825 -0.0025218225847917 0 0.0030799184069333 -0.0077283164622738 0 0 0 0)
(0.0079752221730769 -0.0016811581178785 1.1519011305358e-20 0.003546414780735 -0.0081146797402057 0 0 0 0)
(0.00011283711632468 -0.0055888598134334 0 -3.1164841073236e-07 -0.00010986408573168 0 0 0 0)
(0.00033846689798581 -0.0056646356710429 0 1.1749755783749e-06 -0.0003394690301138 0 0 0 0)
(0.00057492016006683 -0.0057658776463818 0 2.703441346576e-06 -0.00057441425578233 0 0 0 0)
(0.00081591414403095 -0.0058522733714466 0 6.8936367253597e-06 -0.00081704893162344 0 0 0 0)
(0.0010747343464069 -0.0059345237599159 0 1.2864783634805e-05 -0.0010692072257398 0 0 0 0)
(0.0013304687063686 -0.0060165906863019 0 2.2181967273513e-05 -0.0013331043476538 0 0 0 0)
(0.0016056507441674 -0.0061021352966066 0 3.5210568110707e-05 -0.0016023095831105 0 0 0 0)
(0.0018840427323154 -0.0061674675124618 0 5.3717407484639e-05 -0.0018860160088418 0 0 0 0)
(0.0021790628619808 -0.0062457661843984 0 7.6660724102839e-05 -0.002174594909824 0 0 0 0)
(0.0024744856261993 -0.0062966575660585 0 0.0001095162464722 -0.0024788819206026 0 0 0 0)
(0.0027928467008244 -0.0063499301608876 0 0.00014659697689342 -0.0027867088160784 0 0 0 0)
(0.0031034375733178 -0.0063692969850017 0 0.00019568059554547 -0.003110878480535 0 0 0 0)
(0.0034468562983155 -0.0063959239784179 0 0.00024936565536787 -0.0034353484597162 0 0 0 0)
(0.0037629644338984 -0.006360348551637 0 0.00032077557744271 -0.0037753542594826 0 0 0 0)
(0.0041275278053153 -0.0063529896873003 0 0.0003962084242046 -0.0041121959839446 0 0 0 0)
(0.0044487574823807 -0.0062610080650625 0 0.00049462369413339 -0.0044691946898497 0 0 0 0)
(0.0048347727520135 -0.0062123044195594 0 0.00059408734782997 -0.0048088256834953 0 0 0 0)
(0.0051496316618523 -0.0060410553437257 0 0.00072384742132752 -0.0051788023960778 0 0 0 0)
(0.0055552055971345 -0.0059554031342306 0 0.00085316490425817 -0.0055172826292687 0 0 0 0)
(0.0058459437373205 -0.0056944321658641 0 0.0010188709544045 -0.0058942812554901 0 0 0 0)
(0.0062749502209652 -0.0055812468304273 0 0.0011788866185742 -0.0062159197072876 0 0 0 0)
(0.0065237408572649 -0.0052124119081771 0 0.0013856453942353 -0.0065982246550779 0 0 0 0)
(0.0069835987582414 -0.0050898132450917 0 0.0015793239946091 -0.0068939429482924 0 0 0 0)
(0.0071705242183276 -0.0046078321332011 0 0.0018331887374242 -0.0072795401403157 0 0 0 0)
(0.0076636884258401 -0.004506130977244 0 0.0020590535157624 -0.0075319285240008 0 0 0 0)
(0.0077557340580057 -0.0038709793684744 0 0.0023647134827397 -0.007919559940913 0 0 0 0)
(0.0082985298865653 -0.00384581369846 0 0.0026227850164389 -0.0081097355953086 0 0 0 0)
(0.0082844002235733 -0.0030276996905744 0 0.0029844907088924 -0.0085028652382314 0 0 0 0)
(0.008971108387416 -0.0031870144822489 0 0.0032668444442226 -0.0086125726280733 0 0 0 0)
(0.0088395764819358 -0.0020988143642183 -1.1673920766346e-20 0.0037547259351846 -0.009066264770455 0 0 0 0)
(0.00011402310088529 -0.0061571497100688 0 -2.0258473363553e-07 -0.00011034123952102 0 0 0 0)
(0.00034205246903099 -0.0062562259370274 0 -2.0181209126289e-08 -0.00034040017478082 0 0 0 0)
(0.0005785881432828 -0.0063727880693637 0 -1.648808389563e-06 -0.00057928895223694 0 0 0 0)
(0.00082454159607221 -0.0064821054169684 0 -7.0441200621509e-08 -0.00082626404942685 0 0 0 0)
(0.0010860332132527 -0.0065994709095692 0 1.7575602970857e-06 -0.0010833883303749 0 0 0 0)
(0.0013524466963688 -0.0067019136449472 0 4.795281297023e-06 -0.0013546472324578 0 0 0 0)
(0.0016382164463364 -0.0068144587320403 0 1.2886596392307e-05 -0.0016355645791389 0 0 0 0)
(0.0019283594900496 -0.006909507307339 0 2.3725831971317e-05 -0.0019302621657138 0 0 0 0)
(0.0022428816745788 -0.0070138499201435 0 3.9967977786162e-05 -0.002237009570212 0 0 0 0)
(0.0025551347068443 -0.0070960357992224 0 6.2570184498276e-05 -0.002558205364756 0 0 0 0)
(0.0028945610187488 -0.0071762444256906 0 9.2870876347821e-05 -0.0028865033083205 0 0 0 0)
(0.0032251990355629 -0.0072161560002074 0 0.00013184595455423 -0.0032337675037285 0 0 0 0)
(0.0035964730626708 -0.0072696739998312 0 0.00017966887534682 -0.0035833881744616 0 0 0 0)
(0.0039418624274649 -0.0072543634026104 0 0.000241053093933 -0.0039558051051576 0 0 0 0)
(0.0043419161804415 -0.0072686710657459 0 0.00031117040504065 -0.0043237324124606 0 0 0 0)
(0.004696763865362 -0.0071825631849405 0 0.0004005679826396 -0.0047178553230127 0 0 0 0)
(0.0051208078062415 -0.0071563887114978 0 0.0004985753973346 -0.005094375723878 0 0 0 0)
(0.0054738849409506 -0.0069877257740112 0 0.00062089292644809 -0.0055077320564603 0 0 0 0)
(0.0059288112386134 -0.0069138532291008 0 0.00075058546293757 -0.0058865823484491 0 0 0 0)
(0.0062640798187595 -0.0066330056890596 0 0.00091218864014052 -0.0063139142853306 0 0 0 0)
(0.0067441037287068 -0.006529122361935 0 0.0010788140125825 -0.0066837788707153 0 0 0 0)
(0.007043739620495 -0.0061357799810435 0 0.0012874177891348 -0.0071204199424636 0 0 0 0)
(0.0075632617930675 -0.0060196449824422 0 0.0014942420985549 -0.0074684945549791 0 0 0 0)
(0.0077960346330715 -0.005475271619018 0 0.0017535341176727 -0.0079157944281508 0 0 0 0)
(0.0083603328978596 -0.0053817189696185 0 0.002002328146334 -0.0082186173226178 0 0 0 0)
(0.0084996935274894 -0.0046712528298347 0 0.0023209220203435 -0.0086753263604381 0 0 0 0)
(0.0091173398787849 -0.0046518994238905 0 0.0026100586881935 -0.0089157842614223 0 0 0 0)
(0.0091364301491826 -0.0037300966451656 0 0.0029945299275952 -0.0093789554566654 0 0 0 0)
(0.01000115039155 -0.0039795895167222 0 0.0033165294513623 -0.0095382122006183 0 0 0 0)
(0.0097559919262298 -0.0026013923338622 -1.3755727023566e-20 0.003852771751557 -0.010082759381776 0 0 0 0)
(0.00011237356916816 -0.0066933751838816 0 -9.3255680239418e-08 -0.00010942850516269 0 0 0 0)
(0.00033522659310364 -0.0068137839299278 0 -2.1118912508347e-06 -0.0003366715820389 0 0 0 0)
(0.00057500642551958 -0.0069561407885816 0 -5.6348684619386e-06 -0.00057316843801296 0 0 0 0)
(0.00082450442845993 -0.0070872176433583 0 -9.529467826774e-06 -0.00082380557841346 0 0 0 0)
(0.0010869473589033 -0.0072292265426437 0 -1.4808800497195e-05 -0.0010854068242825 0 0 0 0)
(0.001358185765486 -0.0073690569252794 0 -1.6625168347863e-05 -0.0013591419917365 0 0 0 0)
(0.0016525271434011 -0.0075118934924056 0 -1.8309846376846e-05 -0.0016473723522844 0 0 0 0)
(0.0019509750252631 -0.0076403607958548 0 -1.6243652423281e-05 -0.0019514655586624 0 0 0 0)
(0.0022750818121433 -0.0077831784209967 0 -1.084290226639e-05 -0.0022715606426228 0 0 0 0)
(0.0026049040082366 -0.0078871095850378 0 -4.2522454739381e-07 -0.0026092051794768 0 0 0 0)
(0.0029634095561228 -0.0080039283995066 0 1.7043920095769e-05 -0.0029564528389378 0 0 0 0)
(0.003316822862058 -0.0080751895499036 0 4.393552021271e-05 -0.0033259360379807 0 0 0 0)
(0.0037151315374203 -0.0081631812460866 0 7.9143602312409e-05 -0.0037004661572222 0 0 0 0)
(0.0040859365862303 -0.0081723071085937 0 0.00012743715243893 -0.0041018614721156 0 0 0 0)
(0.0045191546713797 -0.0082178175492721 0 0.00018617326688661 -0.004499315641204 0 0 0 0)
(0.0049086406656231 -0.00814661439589 0 0.0002615462040518 -0.0049305451085596 0 0 0 0)
(0.0053751292255611 -0.0081449445790106 0 0.00034766517022962 -0.0053453745803923 0 0 0 0)
(0.005767533566614 -0.0079793850440292 0 0.00046002749431275 -0.0058027467913587 0 0 0 0)
(0.0062693646542246 -0.0079276514231401 0 0.0005808845434338 -0.0062259994945623 0 0 0 0)