/*--------------------------------*- C++ -*----------------------------------*\
| =========                 |                                                 |
| \\      /  F ield         | OpenFOAM: The Open Source CFD Toolbox           |
|  \\    /   O peration     | Version:  v1912                                 |
|   \\  /    A nd           | Website:  www.openfoam.com                      |
|    \\/     M anipulation  |                                                 |
\*---------------------------------------------------------------------------*/
FoamFile
{
    version     2.0;
    format      ascii;
    class       volTensorField;
    location    "0";
    object      dU;
}
// * * * * * * * * * * * * * * * * * * * * * * * * * * * * * * * * * * * * * //

dimensions      [0 0 -1 0 0 0 0];


internalField   nonuniform List<tensor> 
22000
(
(0.00011238833027186 -0.00044041544925617 0 -3.8416273591331e-07 -0.00010193936318514 0 0 0 0)
(0.00032813219674139 -0.00047090510704708 0 -4.8233150796582e-07 -0.0003265402634395 0 0 0 0)
(0.00055152566201157 -0.00048152076778195 0 -1.2582607652276e-07 -0.00055982765056153 0 0 0 0)
(0.00078583423030679 -0.00048282305799016 0 4.9065680437296e-07 -0.00079491049509203 0 0 0 0)
(0.0010238960113249 -0.00048140030153296 0 1.3584182529243e-06 -0.0010296874212944 0 0 0 0)
(0.0012603742504054 -0.00047909093912849 0 2.5768592679239e-06 -0.0012635686755996 0 0 0 0)
(0.0014938397262046 -0.0004762602991234 0 4.2123969052967e-06 -0.0014962567259037 0 0 0 0)
(0.0017246528964794 -0.00047293261508872 0 6.3054411128237e-06 -0.0017275374460479 0 0 0 0)
(0.0019534405455518 -0.00046913014765277 0 8.865413934988e-06 -0.0019571431789634 0 0 0 0)
(0.0021804456462189 -0.00046479464984925 0 1.192161351777e-05 -0.0021848809937973 0 0 0 0)
(0.002405569967344 -0.00045997887941851 0 1.547415230816e-05 -0.0024104258507732 0 0 0 0)
(0.0026284358016875 -0.00045456730276611 0 1.9576577879289e-05 -0.0026336357911753 0 0 0 0)
(0.0028487292179 -0.00044870520198849 0 2.4211930090427e-05 -0.0028540748188242 0 0 0 0)
(0.0030660266554673 -0.00044214353605577 0 2.9474696739748e-05 -0.0030717414304543 0 0 0 0)
(0.0032801680196768 -0.00043523263659119 0 3.5298646638685e-05 -0.0032859598104888 0 0 0 0)
(0.0034907008912068 -0.00042740581337677 0 4.1859570998004e-05 -0.0034970656665531 0 0 0 0)
(0.0036976291187529 -0.0004194870051369 0 4.8975857890097e-05 -0.0037038375783357 0 0 0 0)
(0.003900270913776 -0.00041017669593376 0 5.699637727997e-05 -0.0039074018865204 0 0 0 0)
(0.0040988939699056 -0.00040139744854162 0 6.5487805503164e-05 -0.004105288596712 0 0 0 0)
(0.0042923680712002 -0.00039016337493222 0 7.5172156867179e-05 -0.0043004665257263 0 0 0 0)
(0.0044815145473222 -0.00038094743001705 0 8.5065294932084e-05 -0.0044876040433964 0 0 0 0)
(0.0046643153597669 -0.00036687462709198 0 9.6698217651718e-05 -0.0046739476532087 0 0 0 0)
(0.004842802892891 -0.00035830767111873 0 0.0001079007598643 -0.0048475952293453 0 0 0 0)
(0.0050132023689929 -0.0003394205524627 0 0.00012193813286397 -0.0050256815737048 0 0 0 0)
(0.0051798904001661 -0.00033413492001696 0 0.00013410462327738 -0.0051812222461416 0 0 0 0)
(0.0053357546492788 -0.00030608665312193 0 0.00015137328737409 -0.0053541198113935 0 0 0 0)
(0.0054895527435731 -0.00030997380451672 0 0.00016368682522905 -0.0054828343258032 0 0 0 0)
(0.0056289547195794 -0.00026449574334426 0 0.00018578603315575 -0.0056592133100252 0 0 0 0)
(0.0057679208732613 -0.00028408694841951 0 0.00019678420021733 -0.0057445097634276 0 0 0 0)
(0.005891871102807 -0.00023021572601012 -5.3693114792931e-22 0.00022639925438598 -0.0059398204752523 0 0 0 0)
(0.00010892051073708 -0.0012991328183534 0 -3.7904527189036e-07 -0.00010320965699133 0 0 0 0)
(0.0003291660927213 -0.0013880515926719 0 6.2024672516177e-07 -0.00032996318213216 0 0 0 0)
(0.00055541968427083 -0.0014199818096421 0 3.0479273861772e-06 -0.00056550752164418 0 0 0 0)
(0.00079177436379912 -0.001424713935123 0 6.5990347605907e-06 -0.00080308657979688 0 0 0 0)
(0.0010322452573888 -0.0014212479223761 0 1.1186498547712e-05 -0.0010405643089609 0 0 0 0)
(0.0012717962338621 -0.0014150677247361 0 1.6903187525767e-05 -0.001277321296069 0 0 0 0)
(0.0015087619822339 -0.0014073318265706 0 2.3834684576257e-05 -0.0015130568560847 0 0 0 0)
(0.0017432748590165 -0.0013981369181025 0 3.2066395250435e-05 -0.0017475695687462 0 0 0 0)
(0.0019759171776936 -0.0013875468143763 0 4.1626721065984e-05 -0.0019806032722681 0 0 0 0)
(0.0022068946528749 -0.0013753868403842 0 5.2599377724699e-05 -0.002211980831681 0 0 0 0)
(0.0024362061027056 -0.00136181119636 0 6.4987196996406e-05 -0.002441383007046 0 0 0 0)
(0.0026634054932794 -0.0013464848698984 0 7.8934746951142e-05 -0.0026686862583182 0 0 0 0)
(0.0028883427412134 -0.0013298328535443 0 9.4399497338501e-05 -0.0028934527123277 0 0 0 0)
(0.00311039709703 -0.0013111304231464 0 0.00011163973750891 -0.0031157082163248 0 0 0 0)
(0.0033297338525521 -0.00129139647019 0 0.00013048131415154 -0.0033347580556343 0 0 0 0)
(0.0035454388201417 -0.0012689823000074 0 0.00015140734653886 -0.0035509853921993 0 0 0 0)
(0.0037582085315703 -0.0012462744314781 0 0.00017393055295245 -0.0037631122491123 0 0 0 0)
(0.0039663538160926 -0.0012195024928187 0 0.00019901301811012 -0.0039723581680977 0 0 0 0)
(0.0041716357381747 -0.0011942256490026 0 0.00022546797718811 -0.0041761157813239 0 0 0 0)
(0.0043707196595063 -0.001161809574823 0 0.00025529948065685 -0.0043775540073703 0 0 0 0)
(0.0045676645645912 -0.0011351522058933 0 0.00028577423174217 -0.0045710308518234 0 0 0 0)
(0.0047557057780133 -0.0010944467112349 0 0.00032118010083984 -0.004764231876079 0 0 0 0)
(0.0049438162252059 -0.0010694862204653 0 0.00035540171713009 -0.0049445787088819 0 0 0 0)
(0.0051180735438982 -0.0010148471683127 0 0.000397694221594 -0.0051301685109431 0 0 0 0)
(0.005297693610647 -0.00099906999088465 0 0.00043459918208759 -0.0052925632760568 0 0 0 0)
(0.0054541463622188 -0.0009181823529098 0 0.00048616013697662 -0.0054737531533429 0 0 0 0)
(0.0056272769037444 -0.00092844644947248 0 0.00052312888087515 -0.0056091082296694 0 0 0 0)
(0.0057614145995052 -0.00079760745275316 0 0.00058857404000709 -0.0057949617802843 0 0 0 0)
(0.0059304601202461 -0.00085488298538481 0 0.00062067699486152 -0.0058859402739084 0 0 0 0)
(0.0060464068467656 -0.00069117843017208 -5.9198266842224e-22 0.00070787499630697 -0.0060932107867627 0 0 0 0)
(0.00011310483605604 -0.0021249238376541 0 1.5724016858877e-08 -0.00010614563554724 0 0 0 0)
(0.00034113562899886 -0.0022687127805189 0 2.4056293021875e-06 -0.00033883808847142 0 0 0 0)
(0.00057432911452479 -0.002321418233455 0 6.9635042385109e-06 -0.00058037664894459 0 0 0 0)
(0.00081691111237974 -0.0023302164133551 0 1.3584658362339e-05 -0.00082401189904501 0 0 0 0)
(0.0010632886004346 -0.0023255736007887 0 2.2171734405371e-05 -0.0010676274529274 0 0 0 0)
(0.0013087938948722 -0.002316465933548 0 3.2707778070727e-05 -0.0013106331859225 0 0 0 0)
(0.0015519563312838 -0.0023048822260636 0 4.520779307211e-05 -0.0015527614327424 0 0 0 0)
(0.0017929075622302 -0.0022910189653603 0 5.9760120460336e-05 -0.0017938572963524 0 0 0 0)
(0.0020322654926796 -0.0022749924821204 0 7.6404766882424e-05 -0.0020337032206686 0 0 0 0)
(0.002270174414433 -0.0022564997168021 0 9.5280719673805e-05 -0.0022721756189227 0 0 0 0)
(0.0025067714134189 -0.0022358015757082 0 0.000116399600004 -0.002508981668527 0 0 0 0)
(0.0027415035922683 -0.0022123220692592 0 0.00013999331606109 -0.0027440579139631 0 0 0 0)
(0.0029744957983537 -0.002186786489757 0 0.00016600004328962 -0.0029769667823355 0 0 0 0)
(0.0032048161971126 -0.0021579488781983 0 0.00019483346570472 -0.0032078161440011 0 0 0 0)
(0.0034331722523737 -0.0021275468472783 0 0.0002262271222261 -0.0034358589668878 0 0 0 0)
(0.0036579027838366 -0.0020927497030428 0 0.00026095625884605 -0.0036616178578171 0 0 0 0)
(0.0038808598115772 -0.0020576285133673 0 0.00029826092677428 -0.0038836505329295 0 0 0 0)
(0.0040986627065337 -0.0020157233037016 0 0.00033968498528312 -0.0041034569924594 0 0 0 0)
(0.0043155990089896 -0.0019765245232984 0 0.00038334764878854 -0.0043180217478606 0 0 0 0)
(0.0045245727471047 -0.0019252659465841 0 0.00043247057220802 -0.004531128057842 0 0 0 0)
(0.0047352141058389 -0.0018839550240899 0 0.00048268118625867 -0.0047361872983475 0 0 0 0)
(0.0049324628390194 -0.001818788766858 0 0.00054088718019447 -0.0049422707972401 0 0 0 0)
(0.0051375047598968 -0.0017805502875354 0 0.00059722864377219 -0.0051346567516433 0 0 0 0)
(0.0053182571044653 -0.001691842553146 0 0.00066669831981084 -0.0053345843315181 0 0 0 0)
(0.0055206825668627 -0.0016693473405311 0 0.00072742624892929 -0.0055087947017052 0 0 0 0)
(0.0056768207881797 -0.001536190885521 0 0.00081209806641733 -0.0057063855927109 0 0 0 0)
(0.005884151571333 -0.0015580529936152 0 0.00087280269880096 -0.0058519248208976 0 0 0 0)
(0.0060048775466891 -0.0013401512568865 0 0.00098034315141596 -0.0060577092603246 0 0 0 0)
(0.0062277033820804 -0.0014427601888951 0 0.0010325928087558 -0.0061544638412163 0 0 0 0)
(0.0063221106666305 -0.0011658690845092 1.2689966196754e-21 0.0011762874312105 -0.0063877532127439 0 0 0 0)
(0.00011778866828756 -0.0029320656250506 0 2.7100303258616e-08 -0.00011028819883241 0 0 0 0)
(0.00035461012739128 -0.0031283449233816 0 2.8274778625846e-06 -0.00035155791189564 0 0 0 0)
(0.00059633969782501 -0.0032004575912718 0 8.2092333944649e-06 -0.0006016515344332 0 0 0 0)
(0.00084740996341535 -0.0032128234246834 0 1.6201355482964e-05 -0.00085373917461855 0 0 0 0)
(0.0011021708655516 -0.0032070468267227 0 2.6779933418912e-05 -0.0011057693123002 0 0 0 0)
(0.0013560075742965 -0.0031953993453794 0 3.9937168375592e-05 -0.0013572444442083 0 0 0 0)
(0.0016076411327925 -0.003180637867365 0 5.5667269452315e-05 -0.0016079769406822 0 0 0 0)
(0.0018572930057184 -0.0031630433478983 0 7.4071890583945e-05 -0.0018578969928152 0 0 0 0)
(0.0021057280829439 -0.0031427941859077 0 9.5201570281259e-05 -0.002106854726994 0 0 0 0)
(0.0023530474235705 -0.003119440138826 0 0.00011926126754478 -0.0023548152543077 0 0 0 0)
(0.0025995889144234 -0.0030933557931412 0 0.00014627980863782 -0.0026015355710188 0 0 0 0)
(0.0028446386538487 -0.0030636765057225 0 0.00017659895383369 -0.0028470504916433 0 0 0 0)
(0.003088710108939 -0.0030314549843285 0 0.00021014252814972 -0.0030909330971577 0 0 0 0)
(0.0033304354409979 -0.0029948338767263 0 0.0002475101398265 -0.0033334184724544 0 0 0 0)
(0.0035712995169702 -0.0029563511514458 0 0.00028833881765529 -0.0035736919493856 0 0 0 0)
(0.0038085866986208 -0.0029118128605973 0 0.00033374354624337 -0.0038124833030207 0 0 0 0)
(0.004045798852715 -0.0028671849553109 0 0.00038266763046148 -0.0040481203551544 0 0 0 0)
(0.0042771555426157 -0.0028129368633582 0 0.00043731651171904 -0.0042825095368538 0 0 0 0)
(0.0045105417954643 -0.0027629893295853 0 0.00049505441986188 -0.0045120574471926 0 0 0 0)
(0.0047335274373457 -0.0026956238951422 0 0.00056045785979606 -0.0047414240970273 0 0 0 0)
(0.0049636266562664 -0.0026431043274343 0 0.0006273827922511 -0.0049626820076399 0 0 0 0)
(0.00517404412661 -0.0025558394893421 0 0.00070559615640038 -0.005186862074151 0 0 0 0)
(0.0054032654027237 -0.0025081848988279 0 0.00078123818408896 -0.0053962202147576 0 0 0 0)
(0.0055935271552629 -0.0023868288669219 0 0.00087545285802972 -0.005616409035647 0 0 0 0)
(0.005828630263579 -0.0023623431959311 0 0.00095751280615292 -0.0058074139496131 0 0 0 0)
(0.0059849822976755 -0.0021762952839437 0 0.0010734079636912 -0.0060282506837214 0 0 0 0)
(0.0062415702256929 -0.0022164243362742 0 0.0011558997150347 -0.0061884513918464 0 0 0 0)
(0.0063448090561626 -0.0019067577442343 0 0.0013044530847252 -0.006422449913941 0 0 0 0)
(0.0066457803406951 -0.0020646461869168 0 0.0013758442858907 -0.0065279441592187 0 0 0 0)
(0.006711638235529 -0.0016664522436304 0 0.0015760458915467 -0.0067979268436085 0 0 0 0)
(0.00012297444189094 -0.0037245100198178 0 3.5120283168117e-08 -0.00011491736328306 0 0 0 0)
(0.00036942783070998 -0.003970581514807 0 3.1711269296895e-06 -0.00036558997616403 0 0 0 0)
(0.00062057257081137 -0.0040607825793813 0 9.1766510334606e-06 -0.00062505309785027 0 0 0 0)
(0.00088112022841759 -0.0040762980935918 0 1.8088095088701e-05 -0.00088643836861234 0 0 0 0)
(0.0011453507768055 -0.0040695303272449 0 2.9897342664295e-05 -0.001147769174156 0 0 0 0)
(0.0014086604785369 -0.0040559130634825 0 4.4621112580938e-05 -0.0014086635218178 0 0 0 0)
(0.001669957778384 -0.0040389175767314 0 6.2268378372605e-05 -0.0016690420543726 0 0 0 0)
(0.0019295689391897 -0.004018872158064 0 8.2982379116921e-05 -0.0019289502266934 0 0 0 0)
(0.0021884677757149 -0.0039960141406113 0 0.00010683933415431 -0.0021883287629812 0 0 0 0)
(0.0024467230834763 -0.0039697187864299 0 0.00013412297339182 -0.0024472592166899 0 0 0 0)
(0.0027049436058902 -0.0039404879602607 0 0.00016488959571336 -0.0027055654866724 0 0 0 0)
(0.0029622140406824 -0.0039071105279246 0 0.00019960954041666 -0.0029634125173084 0 0 0 0)
(0.003219548801567 -0.0038710041429193 0 0.00023820629729773 -0.0032203918897122 0 0 0 0)
(0.0034750264064476 -0.0038295836106109 0 0.00028149162334509 -0.0034769069720508 0 0 0 0)
(0.0037311323855383 -0.0037862962814559 0 0.00032901814307589 -0.0037320622060678 0 0 0 0)
(0.0039838117360784 -0.0037353491061929 0 0.00038227562155377 -0.003986858262564 0 0 0 0)
(0.0042386788716624 -0.0036848793915738 0 0.00043991704646701 -0.0042393352612153 0 0 0 0)
(0.0044869042946694 -0.0036217891909354 0 0.00050485865678333 -0.0044919244742817 0 0 0 0)
(0.0047409569717551 -0.0035650844322803 0 0.0005737042392228 -0.0047403014834377 0 0 0 0)
(0.0049816349084072 -0.0034850228993739 0 0.00065245768716712 -0.0049902497418131 0 0 0 0)
(0.0052364785360772 -0.0034256280923633 0 0.00073317159743747 -0.0052321428527639 0 0 0 0)
(0.0054638026574762 -0.003319174363044 0 0.00082859155365843 -0.0054795099119682 0 0 0 0)
(0.0057240520498195 -0.0032669753646561 0 0.00092077364513847 -0.0057107736608072 0 0 0 0)
(0.0059269368176334 -0.003114669754255 0 0.0010371983103029 -0.0059571932542654 0 0 0 0)
(0.006204159266552 -0.0030942432959587 0 0.001138106190133 -0.0061702017268873 0 0 0 0)
(0.0063617626675129 -0.0028544506047429 0 0.0012830962126436 -0.0064213775485553 0 0 0 0)
(0.006681765132854 -0.0029216322938743 0 0.0013852464519986 -0.0066012680881022 0 0 0 0)
(0.0067641521295962 -0.0025144724955315 0 0.0015731755715247 -0.0068722653257853 0 0 0 0)
(0.0071651795515123 -0.0027412841846424 0 0.0016618834936984 -0.0069904799726914 0 0 0 0)
(0.0071948743540936 -0.0022126757081604 -3.1330238990341e-21 0.0019174593982395 -0.0073086183761282 0 0 0 0)
(0.00012826433518561 -0.0045028688075567 0 4.3064342067935e-08 -0.00011961365084751 0 0 0 0)
(0.00038447976099861 -0.0047960570241104 0 3.2733837126983e-06 -0.00037972626727481 0 0 0 0)
(0.0006450833827262 -0.0049032135649321 0 9.4211799868313e-06 -0.00064857846538061 0 0 0 0)
(0.00091512104227241 -0.0049216888551981 0 1.8507704496472e-05 -0.00091931381998164 0 0 0 0)
(0.001188876229035 -0.00491429721498 0 3.0520271895731e-05 -0.0011900540998093 0 0 0 0)
(0.0014617890217441 -0.0048995142927377 0 4.5500336436758e-05 -0.00146055263461 0 0 0 0)
(0.0017329928719037 -0.0048814948534664 0 6.3485245211859e-05 -0.0017308600797964 0 0 0 0)
(0.0020029287316989 -0.0048605862975897 0 8.4677550513701e-05 -0.0020011648497996 0 0 0 0)
(0.0022728194847251 -0.0048370849985223 0 0.00010919315885637 -0.0022715229773419 0 0 0 0)
(0.0025427011021604 -0.0048101598255142 0 0.00013740810411839 -0.0025421631358425 0 0 0 0)
(0.0028135194356656 -0.0047804573990386 0 0.00016941734503497 -0.002812996603579 0 0 0 0)
(0.0030841274131179 -0.0047463556739345 0 0.00020583660274972 -0.0030843526751842 0 0 0 0)
(0.0033561511274443 -0.0047096851916391 0 0.00024660381970818 -0.0033558532310712 0 0 0 0)
(0.0036270136165012 -0.004667000355962 0 0.00029276664453175 -0.0036281135031337 0 0 0 0)
(0.0039004095959339 -0.0046227875007698 0 0.0003438105282796 -0.0039001500700348 0 0 0 0)
(0.0041706905674919 -0.00456938211937 0 0.0004016308722646 -0.0041732995795943 0 0 0 0)
(0.0044460081459896 -0.0045174163227623 0 0.00046460784558658 -0.0044452669257515 0 0 0 0)
(0.0047139014980023 -0.0044496483862422 0 0.0005364081549473 -0.0047191237094409 0 0 0 0)
(0.004992320830428 -0.0043909326327553 0 0.00061289076606795 -0.004989679883593 0 0 0 0)
(0.0052539990876533 -0.0043022585841339 0 0.00070153728170215 -0.0052640741211589 0 0 0 0)
(0.0055384280982153 -0.0042411539858344 0 0.00079260966892211 -0.0055306584073725 0 0 0 0)
(0.0057862230274046 -0.0041190480969607 0 0.00090188941976035 -0.005805954034008 0 0 0 0)
(0.0060839070230694 -0.004068128833127 0 0.0010073602694457 -0.0060638219983712 0 0 0 0)
(0.0063025946292969 -0.003887048034843 0 0.0011428975694453 -0.0063422043516705 0 0 0 0)
(0.0066307992828046 -0.0038778983006824 0 0.0012597330194526 -0.0065823692026522 0 0 0 0)
(0.0067911678931892 -0.0035836351471284 0 0.0014310939790797 -0.0068708170777864 0 0 0 0)
(0.0071877106123638 -0.0036882450744291 0 0.0015504763982777 -0.0070755746660597 0 0 0 0)
(0.0072470797349728 -0.00317719376098 0 0.0017755620287356 -0.0073921443334668 0 0 0 0)
(0.0077685460663553 -0.0034886940037622 0 0.0018798901404572 -0.0075273977939001 0 0 0 0)
(0.0077562508772961 -0.0028189001558762 1.0323605358289e-20 0.0021894465341176 -0.0079045982008478 0 0 0 0)
(0.00013321473920067 -0.0052653204758918 0 4.97882215337e-08 -0.00012398368991996 0 0 0 0)
(0.0003983901644205 -0.005602858006766 0 3.0646823328339e-06 -0.0003927430392326 0 0 0 0)
(0.00066762390712693 -0.0057258598790933 0 8.7473439927338e-06 -0.0006701358287194 0 0 0 0)
(0.00094628799658803 -0.0057472023729693 0 1.7095966120553e-05 -0.00094938077591755 0 0 0 0)
(0.0012287231759606 -0.0057396895564481 0 2.8091295514981e-05 -0.0012287344015817 0 0 0 0)
(0.0015104781746494 -0.0057247091413637 0 4.1802734404306e-05 -0.0015081139677251 0 0 0 0)
(0.0017909570713689 -0.0057070752375639 0 5.8302594635249e-05 -0.0017877264925466 0 0 0 0)
(0.0020707281034184 -0.0056871333309355 0 7.7862209161258e-05 -0.002067934140439 0 0 0 0)
(0.0023512991984505 -0.005665244773061 0 0.00010064738331586 -0.0023489366722406 0 0 0 0)
(0.0026326745039208 -0.0056403392382672 0 0.00012713843400143 -0.0026311444690218 0 0 0 0)
(0.002916200315749 -0.0056132283990305 0 0.00015748146002759 -0.0029145817521534 0 0 0 0)
(0.0032004775560507 -0.0055818103837134 0 0.00019245297018052 -0.0031997802484896 0 0 0 0)
(0.0034878499775268 -0.0055483833186876 0 0.00023202224694021 -0.0034864098331954 0 0 0 0)
(0.0037750026459005 -0.0055084988986041 0 0.00027749306530657 -0.0037753440788334 0 0 0 0)
(0.0040670306959338 -0.0054678257418808 0 0.00032830662372666 -0.004065512760547 0 0 0 0)
(0.0043564758245468 -0.0054165330599766 0 0.00038678813870416 -0.0043586545126712 0 0 0 0)
(0.0046544055880507 -0.005368099931154 0 0.00045107617075284 -0.0046521041698295 0 0 0 0)
(0.0049442275874664 -0.0053005162032759 0 0.00052561250088263 -0.0049496842973477 0 0 0 0)
(0.0052501562766508 -0.0052453099742319 0 0.00060555695200708 -0.0052452274805625 0 0 0 0)
(0.0055357560423826 -0.0051528565150175 0 0.00069988419305763 -0.0055474392905593 0 0 0 0)
(0.0058541228841879 -0.0050960682959445 0 0.0007971412284739 -0.005842373559673 0 0 0 0)
(0.0061257655174679 -0.004962602739546 0 0.00091612659675429 -0.0061499815880616 0 0 0 0)
(0.0064668415254341 -0.0049197302132683 0 0.0010308972356884 -0.0064389310170749 0 0 0 0)
(0.0067046866648259 -0.0047127319737568 0 0.0011816058237573 -0.0067547848815182 0 0 0 0)
(0.0070921772789826 -0.0047231169493174 0 0.0013107875883309 -0.0070272496678508 0 0 0 0)
(0.0072575722205872 -0.004374108756273 0 0.0015049444061134 -0.0073597830402301 0 0 0 0)
(0.0077429482547657 -0.0045277060908139 0 0.0016386828153058 -0.0075948421896624 0 0 0 0)
(0.0077789074245389 -0.0039063275337616 0 0.0018978590013763 -0.0079654631537074 0 0 0 0)
(0.0084399554128809 -0.0043196759455988 0 0.0020160623745055 -0.008122718819097 0 0 0 0)
(0.0083823509914273 -0.0034974131402504 -7.4837830549627e-21 0.0023773360434483 -0.0085697320344972 0 0 0 0)
(0.00013735591601593 -0.0060079627933763 0 5.5642555966398e-08 -0.00012762610752827 0 0 0 0)
(0.00040987397250874 -0.0063869120173671 0 2.5042632734842e-06 -0.00040338946452315 0 0 0 0)
(0.00068605604665137 -0.0065246314042294 0 7.0328945475696e-06 -0.00068760620588201 0 0 0 0)
(0.00097161235230673 -0.0065488166488704 0 1.3614334937001e-05 -0.00097364836763515 0 0 0 0)
(0.0012610311096969 -0.0065417991698461 0 2.2223152378645e-05 -0.0012599496500751 0 0 0 0)
(0.0015500176183961 -0.0065277378298656 0 3.2960129442742e-05 -0.0015466230889456 0 0 0 0)
(0.0018382919690012 -0.0065120834430455 0 4.5936337177485e-05 -0.0018340609130842 0 0 0 0)
(0.002126566837764 -0.0064951627645266 0 6.1496170240827e-05 -0.0021228307051733 0 0 0 0)
(0.0024166725166843 -0.0064774122645148 0 7.986277956176e-05 -0.0024133056353662 0 0 0 0)
(0.0027085874226954 -0.0064574906227676 0 0.00010162993455902 -0.0027061130830548 0 0 0 0)
(0.0030041180852085 -0.0064363971235556 0 0.00012700805036136 -0.0030014188036222 0 0 0 0)
(0.0033016029101144 -0.0064114800158643 0 0.00015694688039971 -0.0032999965998315 0 0 0 0)
(0.0036042003963843 -0.006385563484441 0 0.00019146643170545 -0.0036015876312841 0 0 0 0)
(0.00390779772143 -0.0063530512235178 0 0.00023214090308796 -0.0039073712644165 0 0 0 0)
(0.004219058809084 -0.0063209439882921 0 0.00027839685967686 -0.0042162009056958 0 0 0 0)
(0.0045285472094354 -0.0062769421169155 0 0.0003330021473627 -0.004530281122154 0 0 0 0)
(0.0048505679275007 -0.006237734888781 0 0.00039390175785605 -0.0048465586686044 0 0 0 0)
(0.0051639986217424 -0.0061759018248243 0 0.00046631403934265 -0.0051697072334409 0 0 0 0)
(0.0054999688431786 -0.0061304903864949 0 0.0005447835227055 -0.005492502667571 0 0 0 0)
(0.0058119831262238 -0.0060398810311588 0 0.00063974370544719 -0.0058253977874135 0 0 0 0)
(0.0061680977134436 -0.0059942896169437 0 0.00073818521699521 -0.0061519378336298 0 0 0 0)
(0.0064667933966199 -0.0058546094758685 0 0.00086179638190781 -0.0064958616190827 0 0 0 0)
(0.0068566873140899 -0.0058274769857945 0 0.00098102683249301 -0.0068201532994037 0 0 0 0)
(0.0071172326376474 -0.0055982911559876 0 0.0011419598952974 -0.0071787443309414 0 0 0 0)
(0.0075717202378912 -0.0056374396732954 0 0.0012791042515687 -0.0074886894605121 0 0 0 0)
(0.0077452659433262 -0.0052342485545999 0 0.001491386335007 -0.0078720060304197 0 0 0 0)
(0.0083307948032038 -0.0054493931807237 0 0.0016359574036167 -0.0081431993949379 0 0 0 0)
(0.0083448869498167 -0.0047119712026862 0 0.0019249274011114 -0.0085763019191533 0 0 0 0)
(0.0091631162042936 -0.0052453725254417 0 0.0020549158505121 -0.0087614527167833 0 0 0 0)
(0.0090593608508826 -0.004259894547327 9.1186787411466e-21 0.0024641995056683 -0.0092889040329882 0 0 0 0)
(0.00014028492735702 -0.0067253969205226 0 6.086638153952e-08 -0.0001301730191845 0 0 0 0)
(0.00041767163147541 -0.0071426258267765 0 1.5651491136947e-06 -0.00041051938071249 0 0 0 0)
(0.00069833452432037 -0.0072939094342614 0 4.186228102312e-06 -0.00069904714664708 0 0 0 0)
(0.00098828402512141 -0.0073209794949609 0 7.8758056587306e-06 -0.00098937228028238 0 0 0 0)
(0.0012822110122338 -0.0073151806832434 0 1.2607812921452e-05 -0.0012801520654452 0 0 0 0)
(0.0015760376159998 -0.0073032876672087 0 1.8517134380284e-05 -0.0015717292038313 0 0 0 0)
(0.0018698363634947 -0.0072913644320298 0 2.5755380512336e-05 -0.0018647116019517 0 0 0 0)
(0.0021644829752103 -0.0072797045046861 0 3.4740906217483e-05 -0.0021599031825219 0 0 0 0)
(0.0024621695763876 -0.0072688331757602 0 4.5758893420786e-05 -0.0024578802369197 0 0 0 0)
(0.0027628648517453 -0.0072571108844731 0 5.9520122483176e-05 -0.0027595205707993 0 0 0 0)
(0.0030688917966491 -0.0072457509444292 0 7.6310354689931e-05 -0.003065162137176 0 0 0 0)
(0.0033783280004352 -0.007231486484252 0 9.7258219637383e-05 -0.0033758594008184 0 0 0 0)
(0.0036952308994045 -0.0072177284565005 0 0.00012245487382499 -0.0036914543313162 0 0 0 0)
(0.0040146556352064 -0.0071975928470281 0 0.00015374975273864 -0.004013478106379 0 0 0 0)
(0.0043449737414183 -0.0071795614534593 0 0.00019059130305012 -0.004340730698694 0 0 0 0)
(0.0046746584609226 -0.0071485720649504 0 0.0002361864775895 -0.0046759411448281 0 0 0 0)
(0.0050215045881688 -0.0071248792019726 0 0.00028835357536719 -0.0050156736907352 0 0 0 0)
(0.0053595825106803 -0.0070750281569181 0 0.00035305747427736 -0.0053655358813163 0 0 0 0)
(0.0057274249767611 -0.0070464056800264 0 0.00042435553553959 -0.005717213688132 0 0 0 0)
(0.0060678545388508 -0.0069640579518465 0 0.00051404127659209 -0.0060830403783462 0 0 0 0)
(0.0064648696070336 -0.006937356818168 0 0.00060780447535693 -0.0064439371105359 0 0 0 0)
(0.0067935599244607 -0.0067975368561627 0 0.00072996058108071 -0.0068276716936637 0 0 0 0)
(0.007237066353242 -0.0067947254158227 0 0.00084787688869731 -0.0071912560203881 0 0 0 0)
(0.0075240353706314 -0.0065481608259428 0 0.0010129333683747 -0.0075974671213543 0 0 0 0)
(0.0080524445515065 -0.0066262045345022 0 0.0011527105723755 -0.0079500522407166 0 0 0 0)
(0.0082381344438464 -0.0061706454888185 0 0.0013771212779749 -0.0083905850671465 0 0 0 0)
(0.0089339726304697 -0.0064606804173569 0 0.0015281728940387 -0.0087041777529664 0 0 0 0)
(0.0089297528797635 -0.0056029606339244 0 0.0018411093591514 -0.0092079788431887 0 0 0 0)
(0.0099209924587542 -0.0062750620566835 0 0.0019803535399254 -0.0094281572983136 0 0 0 0)
(0.0097729536468617 -0.0051170051261488 -9.2514792127457e-21 0.002432221765732 -0.010045984150181 0 0 0 0)
(0.00014161978926889 -0.0074114130502921 0 6.5725602556936e-08 -0.00013130874682565 0 0 0 0)
(0.00042071240787064 -0.0078635620030247 0 2.3814618291465e-07 -0.00041315018382473 0 0 0 0)
(0.00070265549632211 -0.0080272009885197 0 1.8087966836364e-07 -0.00070278647993507 0 0 0 0)
(0.00099378040677059 -0.0080572258950685 0 -1.7796946293736e-07 -0.00099417629256552 0 0 0 0)
(0.0012890485693155 -0.0080534333460299 0 -8.7061632709289e-07 -0.001286250769346 0 0 0 0)
(0.0015846254151988 -0.0080450468921552 0 -1.7303211836431e-06 -0.0015796162923419 0 0 0 0)
(0.0018809654961676 -0.0080387145842054 0 -2.560261113903e-06 -0.0018751277675721 0 0 0 0)
(0.002179127397333 -0.0080346816048728 0 -2.8672984339144e-06 -0.0021738545527815 0 0 0 0)
(0.0024816989765373 -0.0080335756817686 0 -2.298617162186e-06 -0.002476607525336 0 0 0 0)
(0.0027886595651746 -0.0080334378614052 0 -2.9366931110856e-08 -0.0027845455663765 0 0 0 0)
(0.0031028981534846 -0.008035724830295 0 4.3108041971876e-06 -0.0030982134302807 0 0 0 0)
(0.0034222478748425 -0.0080364998490082 0 1.2024254912433e-05 -0.0034189801934521 0 0 0 0)
(0.0037517349642942 -0.0080398219150705 0 2.3294011581683e-05 -0.0037468267764037 0 0 0 0)
(0.00408557951243 -0.0080373953856697 0 4.0234607009923e-05 -0.0040836751384972 0 0 0 0)
(0.0044339638316964 -0.0080393241602204 0 6.2359379459239e-05 -0.0044283121100974 0 0 0 0)
(0.0047832242538576 -0.0080275168537596 0 9.3288668115375e-05 -0.004784036940726 0 0 0 0)
(0.0051548148809148 -0.0080261200897648 0 0.00013080096664197 -0.0051470696953258 0 0 0 0)
(0.0055178615524376 -0.0079950756977808 0 0.00018153893554738 -0.0055240064084037 0 0 0 0)
(0.0059186043882612 -0.007990855955466 0 0.00023924886817776 -0.0059054721160551 0 0 0 0)
(0.006288852191513 -0.007923952875446 0 0.00031690977334665 -0.0063057478273312 0 0 0 0)
(0.0067291260348922 -0.0079245707427108 0 0.00039927283764373 -0.0067031392837067 0 0 0 0)
(0.0070903995630964 -0.0077916586681956 0 0.00051286243440238 -0.0071295290584978 0 0 0 0)
(0.0075914621565297 -0.0078225585988219 0 0.00062271438844334 -0.007535929749157 0 0 0 0)
(0.007908605819535 -0.0075646663740126 0 0.00078454962146607 -0.0079940791604082 0 0 0 0)
(0.0085168851063519 -0.0076925292161478 0 0.00092057930647036 -0.008394323720252 0 0 0 0)
(0.0087195372538005 -0.0071880919024747 0 0.0011495810771494 -0.0088979728670392 0 0 0 0)
(0.0095344468235623 -0.007566950585864 0 0.0013017159837532 -0.0092605496958956 0 0 0 0)
(0.0095177425128048 -0.0065872625636824 0 0.0016306039550846 -0.0098424464573316 0 0 0 0)
(0.010695954300609 -0.007415928186322 0 0.0017766826829881 -0.01010679364643 0 0 0 0)
(0.010508115240554 -0.0060775690008966 -1.139738937204e-20 0.0022642853325514 -0.010824507355636 0 0 0 0)
(0.00014108296459261 -0.0080595373272441 0 6.9356776814985e-08 -0.00013076318637104 0 0 0 0)
(0.00041811632680931 -0.008543022211816 0 -1.4713633859654e-06 -0.00041044264364659 0 0 0 0)
(0.0006975868203357 -0.0087177213387819 0 -4.9496928938743e-06 -0.00069740190674342 0 0 0 0)
(0.00098609029077288 -0.0087507593286634 0 -1.0490635758026e-05 -0.00098604888188494 0 0 0 0)
(0.0012789006766189 -0.0087497746755489 0 -1.8146692462135e-05 -0.0012756381210831 0 0 0 0)
(0.0015724988005452 -0.0087462574194699 0 -2.7724644210964e-05 -0.0015670670128397 0 0 0 0)
(0.0018677553532574 -0.0087474060600215 0 -3.8976852004803e-05 -0.0018614648106452 0 0 0 0)
(0.0021659275319842 -0.0087534066367825 0 -5.1340716089117e-05 -0.0021601882394048 0 0 0 0)
(0.0024700190423316 -0.008765003226585 0 -6.4389473867492e-05 -0.002464315630007 0 0 0 0)
(0.0027800408965049 -0.0087799050553509 0 -7.7197732707493e-05 -0.0027753103099519 0 0 0 0)
(0.0030994841730653 -0.0087998392933067 0 -8.9297001716023e-05 -0.0030939669321512 0 0 0 0)
(0.0034259669664338 -0.0088201597288382 0 -9.9233709860739e-05 -0.0034219920387649 0 0 0 0)
(0.0037655338007956 -0.0088456293703285 0 -0.00010670456337185 -0.003759561007236 0 0 0 0)
(0.0041115993075133 -0.0088664434241751 0 -0.00010936676537912 -0.0041090057165341 0 0 0 0)
(0.0044762199866274 -0.0088944522374223 0 -0.00010758411884941 -0.0044691719181163 0 0 0 0)
(0.0048436207728122 -0.0089083155080634 0 -9.7386116302971e-05 -0.0048439423229611 0 0 0 0)
(0.0052389939951095 -0.0089363514922894 0 -8.0918559732337e-05 -0.0052292853705295 0 0 0 0)
(0.005626537183988 -0.0089314204879062 0 -5.098233137536e-05 -0.0056327872147238 0 0 0 0)
(0.0060602941419092 -0.0089597069464274 0 -1.3911751679338e-05 -0.00604413117704 0 0 0 0)