/*--------------------------------*- C++ -*----------------------------------*\
| =========                 |                                                 |
| \\      /  F ield         | OpenFOAM: The Open Source CFD Toolbox           |
|  \\    /   O peration     | Version:  v1912                                 |
|   \\  /    A nd           | Website:  www.openfoam.com                      |
|    \\/     M anipulation  |                                                 |
\*---------------------------------------------------------------------------*/
FoamFile
{
    version     2.0;
    format      ascii;
    class       volScalarField;
    location    "0";
    object      p;
}
// * * * * * * * * * * * * * * * * * * * * * * * * * * * * * * * * * * * * * //

dimensions      [0 2 -2 0 0 0 0];


internalField   nonuniform List<scalar> 
22000
(
0.029789558603901
0.029770504065533
0.029732686163186
0.029675529827651
0.029598431693874
0.029501318264223
0.029384430781948
0.029248049131204
0.029092392560477
0.028917631194489
0.028723924059301
0.028511453258307
0.028280431464812
0.028031108708401
0.027763757144925
0.027478684041291
0.027176206339435
0.026856688872872
0.026520490376868
0.026168047764724
0.025799752805015
0.025416141409907
0.025017610241295
0.024604841598357
0.02417816958483
0.02373853193657
0.023286054608593
0.022822124263055
0.022346430390998
0.0218609252301
0.030117628829019
0.03009796390809
0.030059168508908
0.03000072780754
0.029922078047167
0.029823106622252
0.029704011597569
0.029565052060911
0.029406439131418
0.029228338016583
0.029030899879954
0.028814297546961
0.028578730827262
0.028324438779776
0.028051678132884
0.027760747034833
0.027451944895526
0.02712563256368
0.026782145791037
0.026421928190931
0.026045336743465
0.025652934429338
0.02524505548436
0.024822451259184
0.024385331710472
0.023934779356798
0.023470664505746
0.022994615937677
0.022505881146295
0.022006507413629
0.030722372358975
0.030701983624163
0.03066178283856
0.030601302557812
0.030520017398493
0.030417815389399
0.030294870705405
0.030151413732275
0.029987629804683
0.029803663154858
0.029599643544188
0.029375723296188
0.029132076657678
0.028868920723299
0.028586482561354
0.028285041376309
0.027964862141594
0.027626295870153
0.027269634357152
0.026895331741327
0.026503678857844
0.026095290586018
0.025670384704927
0.025229854188446
0.024773678277594
0.024303260986423
0.023818002354105
0.023320134261024
0.022808096450859
0.022284371862939
0.031564417054696
0.031543189870851
0.031501337311408
0.03143838335301
0.031353795252017
0.031247456042069
0.031119526020917
0.030970211351617
0.030799665923129
0.030608001736898
0.030395313386586
0.030161719825992
0.02990735552113
0.029632402918003
0.029337042942574
0.029021523436657
0.028686055367867
0.028330970555456
0.027956492635794
0.027563084476097
0.027150937668323
0.026720736165611
0.026272527202257
0.025807398589428
0.025324996562005
0.024827170140991
0.024312635321192
0.023784444594947
0.023239832122076
0.022681830745284
0.03261054010247
0.032588388215051
0.032544703163282
0.032478988405277
0.032390690301924
0.032279676923052
0.032146088144196
0.0319900996279
0.031811824402873
0.031611329912869
0.031388660297685
0.03114388536286
0.030877081774263
0.03058838039131
0.030277895270578
0.029945825655314
0.029592304275654
0.029217628472917
0.028821924306345
0.028405654641669
0.027968872511347
0.027512337051125
0.027035864540692
0.02654077510231
0.026026275120933
0.025494761059784
0.024944060772398
0.024378254855962
0.02379303140704
0.023192157730675
0.033831368293294
0.033808272335491
0.03376271175038
0.033694169567463
0.033602066941669
0.033486248133014
0.033346821136693
0.033183918289698
0.032997597501134
0.032787866335446
0.032554700900573
0.032298103342234
0.032018071152765
0.031714662561135
0.03138789970618
0.03103791095201
0.030664721609198
0.030268573138302
0.029849459115654
0.029407826006609
0.028943543849682
0.028457443243673
0.027949046437131
0.027419932366391
0.02686876422279
0.026298573211856
0.02570611314641
0.025096679037486
0.024464092979322
0.023813015712662
0.035200227293963
0.035176250411953
0.035128935451297
0.03505774313679
0.03496206622175
0.034841717013431
0.034696758717849
0.034527265364456
0.034333223281501
0.034114562740421
0.033871172161841
0.033602965063165
0.03330983554828
0.032991744606602
0.032648593573649
0.032280412904778
0.031887086690746
0.031468773012274
0.031025293037441
0.030557052511572
0.030063689115653
0.029546091519862
0.029003421210954
0.028437526829165
0.027846427194912
0.027233852417014
0.026595303965151
0.025937437657153
0.025251897657032
0.024544353412444
0.03669230998428
0.036667595686177
0.036618804130934
0.03654537403406
0.036446666116276
0.036322451487175
0.036172735480342
0.035997518392399
0.035796697646946
0.035570107482929
0.035317527400593
0.035038759325717
0.034733567551055
0.034401788298217
0.034043170123702
0.033657614315582
0.033244825910989
0.032804846227819
0.032337279246144
0.031842457588725
0.031319732361204
0.030770024492039
0.030192064880053
0.029587965872726
0.028954999941427
0.028297630283824
0.027609938334102
0.026900041973589
0.026157110690795
0.025387898434383
0.038284159744658
0.038258926983251
0.038209087426596
0.038134053964305
0.03803315101455
0.037906099997622
0.037752835877456
0.03757327064589
0.037367196004443
0.037134331215752
0.036874324971721
0.036586843464047
0.036271493412478
0.035927956684989
0.03555579497344
0.035154745758295
0.034724294165994
0.034264326069673
0.033774179813954
0.033254074425519
0.032703016430565
0.032121921860476
0.031509018551393
0.030866656222013
0.0301912629341
0.029488036792082
0.028749481585334
0.027985222737231
0.027181680088212
0.026346698699598
0.039953442087322
0.039927974818372
0.039877648995762
0.039801846213385
0.039699848326271
0.039571318151864
0.039416109184799
0.039234031916141
0.03902475678664
0.038787870229817
0.038522869235873
0.038229260544487
0.037906465755187
0.037553982067169
0.037171149466301
0.036757504712858
0.036312270407247
0.035835133931528
0.03532511691845
0.034782277061874
0.034205216157765
0.033594796208766
0.032948671612118
0.03226938768267
0.031552439865786
0.030803732753748
0.030014057373666
0.029194497287497
0.028328456958223
0.027424599091429
0.041678922334598
0.041653556800819
0.041603412260349
0.041527832937147
0.041426055841422
0.04129767931514
0.041142464782755
0.040960108316879
0.040750144832938
0.040512011876334
0.040245036057287
0.039948542814528
0.039621743095062
0.039263920196749
0.038874158763712
0.038451757300021
0.03799563315981
0.037505228834183
0.036979196735773
0.036417377964352
0.035817907002947
0.035181529872098
0.034505256931552
0.033791767510503
0.03303556025332
0.032243215772509
0.031403831887109
0.030529870467609
0.029602406541863
0.028625369350006
0.043440551978344
0.0434156646921
0.043366441439194
0.043292193204617
0.043192114322131
0.043065733961672
0.042912713091019
0.042732623327282
0.042524852765703
0.042288676399388
0.042023234488531
0.041727652088847
0.041400907494392
0.041042043561796
0.040649859438133
0.040223379322247
0.03976117513872
0.039262396824953
0.038725275717372
0.038149374784059
0.037532296142713
0.036874589752702
0.036172539978897
0.035428847940794
0.034636907539927
0.033803735649802
0.032916849677977
0.031988557332556
0.031007651137504
0.029959639900981
0.045219568441841
0.045195561213553
0.045148050854132
0.045076320365276
0.044979527684714
0.044857131521359
0.044708685921713
0.044533630564851
0.04433119974595
0.044100497685396
0.043840468140228
0.043550020737967
0.043227883728249
0.04287283698901
0.042483369729512
0.042058199332653
0.041595517993141
0.041094137292927
0.040551821185185
0.039967792339902
0.03933906162056
0.03866590066381
0.037943800939771
0.037175372234917
0.036352863110934
0.035483523699713
0.03455353565915
0.033574483038765
0.032538940153417
0.031425322996499
0.046998667052184
0.046975953027537
0.04693097030519
0.046862983321382
0.046771121655985
0.046654774103071
0.046513385006299
0.046346258801072
0.046152473506421
0.045930959224762
0.045680459062663
0.045399659616507
0.04508702917958
0.044741067757474
0.044359936949302
0.043942020528526
0.043485104697822
0.04298762105756
0.042446828748197
0.041861548343318
0.041228150987207
0.040546541948848
0.039811365897681
0.039025019102551
0.038178565581537
0.037279306708965
0.036312047816323
0.035287687804864
0.034199736276286
0.033023020414118
0.048762164807685
0.048741155099422
0.048699512524884
0.048636492313327
0.04855120665082
0.048442978650622
0.048311143330835
0.048154871097052
0.047973086437114
0.047764548071467
0.04752780030449
0.047261306051136
0.046963271356999
0.04663190950193
0.046265044976155
0.045860709210843
0.045416264873785
0.044929729251636
0.044397829470236
0.043818925730106
0.043188711481143
0.042506634982061
0.041766449205098
0.040970200281929
0.040107728472975
0.039186200049898
0.038188870735332
0.037126114827926
0.035990500266045
0.034754599513909
0.050496136140201
0.050477226151632
0.05043970605867
0.050382834743066
0.050305719004132
0.050207622196588
0.050087774486281
0.049945218284847
0.049778732642052
0.049586913823471
0.049368115852171
0.049120584986086
0.048842270423956
0.048531101221874
0.048184565079735
0.047800334958242
0.047375340320594
0.046907162649725
0.046391977777055
0.0458276383934
0.04520913326555
0.044535360775776
0.043799157488195
0.043002059045177
0.042132664590091
0.041197804144416
0.040178979641732
0.039086266054221
0.037909740757239
0.036620364157458
0.052188499229507
0.052172057324754
0.052139390491187
0.052089773979979
0.052022323417737
0.051936251371325
0.051830690603917
0.05170456584992
0.051556524111475
0.051385013888596
0.05118821421669
0.050964169204684
0.05071058534812
0.050425118995498
0.050104931879856
0.049747343309164
0.049348854205502
0.048906599781184
0.048416199410929
0.047874962158577
0.047277160715592
0.046621057975485
0.045898566802435
0.04511053628973
0.044244332275009
0.043306208913196
0.042275725314265
0.041162916165681
0.039953994897783
0.038618802898856
0.053829054765068
0.053815412036719
0.053788256801367
0.053746896468442
0.053690469867374
0.053618148456968
0.053528978676773
0.053421782273965
0.05329509248907
0.053147229746912
0.052976219376771
0.052779924400811
0.052555831576981
0.052301344798124
0.052013322380361
0.051688744494616
0.051323703692699
0.050914889561201
0.050457380824138
0.049947913202429
0.049380059213024
0.048751364884552
0.048052841912296
0.047284485154289
0.046432431664911
0.045502112306218
0.044470915084529
0.043349086652501
0.042117563938807
0.040746282613871
0.055409469566887
0.055398913241991
0.055377842591285
0.055345612559254
0.055301400999787
0.055244349890233
0.055173432304864
0.055087384578565
0.054984649260604
0.054863443297133
0.054721665470386
0.054557023550418
0.05436681507212
0.054148218932341
0.05389782461219
0.053612297351492
0.053287356965485
0.05291925997225
0.052502579363028
0.052033465903132
0.051504820479598
0.05091342203406
0.050249402881577
0.049511800494845
0.048685523552677
0.04777495084633
0.046755056601062
0.045636229646181
0.044392529775285
0.042997131383802
0.056923212196993
0.056915983667043
0.05690147689631
0.056879110795723
0.056848117560635
0.056807622729907
0.05675654240613
0.056693546231292
0.05661701127209
0.056525079172023
0.05641555611188
0.056286025271639
0.056133632530931
0.055955363501042
0.055747584031061
0.055506676970978
0.055228039310677
0.054907521809577
0.054539239685441
0.054118778819758
0.053638397713234
0.0530941153081
0.052475168677108
0.051779631295386
0.050991159158628
0.050113001082623
0.049117589611145
0.048014923544896
0.046769411588443
0.045363927281925
0.058365431068256
0.058361731747208
0.058354182494429
0.058342273874642
0.058325306808816
0.058302408885038
0.058272457726971
0.058234075384462
0.058185601525814
0.058125130856117
0.058050413487455
0.057958942152112
0.057847758644746
0.05771369070162
0.057552936585463
0.057361631258372
0.057134915694246
0.05686826728106
0.056555414714213
0.056191414521022
0.055767938706479
0.055280302793008
0.054716818925021
0.054074697624588
0.053336129589797
0.052503552179441
0.051546679500754
0.05047525316743
0.049239700590261
0.04783735297347
0.059732808897322
0.059732788297856
0.059732502045667
0.059731508140866
0.059729189082999
0.059724697062129
0.059716884241751
0.059704339147942
0.059685400606546
0.059658145951783
0.059620301897095
0.059569301010908
0.059502137037012
0.059415518025365
0.059305547366466
0.059168137763693
0.058998270805841
0.058791055905336
0.058539970018236
0.058239512822086
0.057880950342912
0.05745885946289
0.056960793837
0.056383182188048
0.055706480851806
0.054932919233353
0.054028374513811
0.053005214900002
0.051796888821711
0.050401963675513
0.061023481666354
0.061027158560731
0.061034274593522
0.061044475434236
0.061057225973294
0.061071709840936
0.061086765507805
0.06110095921526
0.061112668384781
0.061119971785335
0.06112059987711
0.061111953270994
0.061091032976458
0.061054459372714
0.060998326625463
0.060918334372734
0.060809439517951
0.060666326506516
0.060482466034505
0.060251591688971
0.059965032624739
0.059616136804889
0.059192562406279
0.058689178024218
0.058085813759856
0.057383782522242
0.056544039784169
0.055582170483575
0.05442253624741
0.053033050487089
0.062237155307698
0.062244344755802
0.062258645260442
0.062279992627791
0.062307959181537
0.062341614562416
0.062379807189618
0.062421217534072
0.062464279450834
0.062507033239552
0.062547232247514
0.062582284612565
0.06260924374132
0.062624669096224
0.062624716631798
0.062604881152622
0.062560228968929
0.062484927494389
0.062372751980912
0.062216276097105
0.06200771229112
0.061737901177767
0.061396851941426
0.060974293662341
0.060455628416829
0.059832170839316
0.059074780055484
0.058175847862342
0.057074433704289
0.055692313660955
0.06337532952264
0.063385985307901
0.063407023075791
0.063439155337267
0.063482263428923
0.063534950573971
0.06359579547834
0.063664166600931
0.063738597115645
0.063817020782466
0.063897260262706
0.063976800268401
0.064052783242176
0.064121784134642
0.064180075312972
0.064223053908946
0.064245954411909
0.064242540777116
0.064206991504854
0.064130744668919
0.064007253594661
0.063824288931332
0.063575731344566
0.063243102905417
0.06282352191132
0.062287233637332
0.06163720778127
0.060816852132528
0.059804858854435
0.058406709004086
0.021395877621614
0.020953212461561
0.020503216152951
0.020046827193592
0.019584968414219
0.01911839334844
0.018647726731661
0.018173556654544
0.017696496692562
0.017217204585776
0.01673637437203
0.016254720556022
0.015772964986732
0.015291831203243
0.014812045200117
0.014334335765935
0.013859433162533
0.013388067995178
0.012920968693172
0.012458859148772
0.012002456709717
0.01155247357439
0.0111096204403
0.01067461797672
0.010248205702617
0.0098310700551244
0.0094235889071062
0.009026317589984
0.0086398897269507
0.0082649174569801
0.0079019566688971
0.0075515097963184
0.0072140356645441
0.0068899597280334
0.0065796756167251
0.006283546484241
0.0060018987025978
0.0057350262941837
0.0054831808063417
0.0052465852056882
0.005025411558857
0.0048198146067948
0.004629882331914
0.0044557111370947
0.004297291865187
0.0041546781345652
0.0040277294060123
0.003916450182017
0.0038204592002352
0.0037393726691512
0.021530824118254
0.021080303340923
0.020621174774123
0.020155306454052
0.019684127947156
0.01920840469724
0.018728550744997
0.018244956985264
0.017758139451921
0.0172687415047
0.016777477841026
0.016285083641523
0.01579229222951
0.015299834643867
0.014808447127934
0.014318876355809
0.013831879624768
0.013348221617408
0.012868670643488
0.012393994644442
0.011924958018618
0.011462314948853
0.011006798905473
0.010559099747577
0.010119838660002
0.0096896384479026
0.0092694379981719
0.0088599331272811
0.0084616945443914
0.0080752671637816
0.0077011922216423
0.0073399975693948
0.0069921804534594
0.0066582035614828
0.0063384867534176
0.0060334153079187
0.0057433254368981
0.0054685255426471
0.0052092607748302
0.0049657663536063
0.0047381855584597
0.0045266969259185
0.0043313154318599
0.0041522008304184
0.0039891855107296
0.0038424956335034
0.0037117019996146
0.0035972493986897
0.0034986135955497
0.0034164386304855
0.021788074677688
0.021318546651253
0.020837557310201
0.020349061468527
0.019855724328569
0.01935845734232
0.01885731054047
0.018352324190732
0.017843867981446
0.017332603178659
0.016819322863864
0.016304830115314
0.015789895952565
0.015275270393864
0.014761706609412
0.014249974905518
0.013740863295341
0.01323517084674
0.012733699745677
0.012237249552548
0.011746612761337
0.011262572231313
0.010785900178273
0.01031736402527
0.0098577394145801
0.009407807125178
0.0089682404832186
0.0085397177136076
0.0081228876475957
0.0077183635237067
0.0073267252288338
0.0069485238671218
0.0065842721023713
0.0062344481169186
0.0058994792010778
0.0055797615653022
0.0052756268360958
0.0049873944024216
0.004715288623477
0.0044595673952448
0.0042203225243348
0.0039977936856418
0.0037918809045611
0.0036029101378215
0.003430466886475
0.0032752088034463
0.0031362650091455
0.0030150838533825
0.0029109803228268
0.0028264546388936
0.022155176250321
0.021655781671485
0.021140803009992
0.020617610494896
0.020090766246364
0.01956132648904
0.019028725587876
0.018492451541666
0.017952655547814
0.017410029525824
0.016865477033591
0.016319884552441
0.015774055811278
0.015228743390061
0.01468469879644
0.014142700064794
0.013603552983176
0.013068079987218
0.012537108959189
0.012011466448151
0.011491974924512
0.010979451368095
0.010474705268857
0.0099785335169967
0.0094917110178243
0.0090149822201908
0.0085490901194074
0.00809474098177
0.0076526075488443
0.007223331670163
0.0068075178775876
0.0064057371814839
0.0060185149001075
0.005646344194682
0.0052896595327522
0.0049488740848854
0.0046243182513523
0.0043163354050725
0.0040251309723276
0.0037510101073961
0.0034940050243583
0.003254461804606
0.0030321255514993
0.00282757990163
0.002640039726671
0.0024707923387458
0.002318250939137
0.0021853128689534
0.0020710005135144
0.0019808146908831
0.022626946145497
0.022088308406949
0.021528558002213
0.02095989366744
0.020389461963856
0.019818424670344
0.019245306304728
0.018668825110643
0.01808884637299
0.017506114650742
0.016921683228086
0.01633654196081
0.015751524695034
0.015167374075272
0.014584828407812
0.014004665956828
0.013427706295275
0.012854792671938
0.012286775138214
0.011724502009532
0.011168816846152
0.010620557010924
0.010080550763038
0.009549613515439
0.0090285434574161
0.0085181192115998
0.0080190994092508
0.0075322148482751
0.0070581627170258
0.006597608055053
0.006151175123781
0.0057194550264643
0.005302988304514
0.004902287285031
0.0045177961094921
0.0041499506995345
0.0037990812978316
0.0034655649014561
0.0031495840869642
0.0028515082542134
0.0025712938203256
0.0023094322353926
0.00206546580258
0.0018403312571763
0.0016327558068228
0.0014448962871592
0.0012742382038127
0.0011256864936104
0.00099794377700373
0.00090056229615257
0.023202250576566
0.022615836053192
0.022001088368899
0.021376653687967
0.020753038262878
0.020131451674313
0.019509178842863
0.018883939986994
0.018255257568372
0.017623967599056
0.01699132339082
0.01635844276589
0.015726190884341
0.015095291614411
0.014466461524079
0.013840475070849
0.013218164137045
0.012600391372178
0.011988026929467
0.011381937572725
0.010782984249018
0.010192022123011
0.0096098987927217
0.0090374512232414
0.0084755010268924
0.0079248487985127
0.0073862713251638
0.0068605187364183
0.0063483071866933
0.0058503210597049
0.0053672019116806
0.0048995595451651
0.0044479481758352
0.0040128995055577
0.0035948656606924
0.0031943062959691
0.0028115477653504
0.0024470059446434
0.0021008324060238
0.001773476031177
0.0014647964951699
0.0011754705978727
0.00090478394995158
0.0006541275414257
0.00042160897379823
0.0002105028154388
1.7108007828223e-05
-0.00015111680522239
-0.0002958895533162
-0.0004025232346066
0.023881964689789
0.023239732361722
0.022559982900407
0.021869691731704
0.021183595046082
0.020502851283887
0.019823114672866
0.019140855928892
0.01845520583634
0.017767144797859
0.017078185685864
0.016389601620002
0.015702287575255
0.015016937469306
0.014334238058056
0.013654956711722
0.012979937413815
0.012310062449566
0.011646220861222
0.01098929584414
0.010340163756435
0.0096996957262436
0.0090687564632688
0.0084482008002955
0.007838867895961
0.0072415752384098
0.0066571181146584
0.0060862638710527
0.0055297448436609
0.0049882622169599
0.0044624721239575
0.0039530011885383
0.0034604153365679
0.0029852642998271
0.0025280053491424
0.0020891229205859
0.0016689349265281
0.0012679011000187
0.00088613185203495
0.00052417145181279
0.00018175733872548
-0.00014020645237736
-0.00044275635770306
-0.00072393955017295
-0.00098642660093754
-0.0012255604365967
-0.0014465316370594
-0.0016387349872376
-0.0018044152662297
-0.0019225236601379
0.024668719423196
0.023963002979169
0.023208307884412
0.022442137744976
0.0216844398801
0.020936164893729
0.020190869786183
0.019443497043568
0.018692746260281
0.01793981384942
0.017186541041921
0.016434383087939
0.015684262085315
0.014936830617388
0.014192737822087
0.013452742874874
0.012717703546347
0.011988522954687
0.011266109344738
0.010551361500835
0.0098451694970531
0.0091484183907759
0.0084619877499829
0.0077867479486542
0.0071235538756144
0.0064732384159154
0.005836612836445
0.0052144601343796
0.0046075267459217
0.0040165281159083
0.0034421327200911
0.0028849814399953
0.002345648601153
0.0018247002358866
0.0013225947648996
0.00083984041675407
0.00037673953332334
-6.6200453696741e-05
-0.00048892488942311
-0.00089077899481368
-0.0012721811642511
-0.0016319551357535
-0.0019715398412223
-0.0022883006969521
-0.0025858718086336
-0.002857912708236
-0.003111445986086
-0.0033320559147061
-0.0035226397102455
-0.003654470259547
0.025566457250783
0.024789865827756
0.023950211307832
0.023098083302845
0.022259740704261
0.021435697445198
0.020616858127024
0.019796332539013
0.018972367669131
0.018146468955764
0.017320885028265
0.016497281094129
0.01567659926349
0.014859437258243
0.014046401052171
0.013238242998964
0.012435838896395
0.011640116304708
0.010852003760986
0.010072415233218
0.0093022537648267
0.008542417402575
0.007793799633855
0.0070572853162772
0.0063337439762456
0.0056240224586961
0.0049289457206247
0.0042493096861406
0.0035858727690375
0.002939362183639
0.0023104552795621
0.0016998038479262
0.0011079867084825
0.00053558233220674
-1.6956031526478e-05
-0.00054909825019683
-0.001060568023803
-0.0015508080947735
-0.0020198398357594
-0.0024668824000783
-0.0028925534062812
-0.0032953544710011
-0.0036772253872631
-0.0040347132500867
-0.0043726360518893
-0.0046826328028214
-0.0049739597769425
-0.0052276680131018
-0.0054474695873949
-0.0055955244097631
0.026579898602562
0.02572526649229
0.024790495613436
0.023842216357605
0.022914221719827
0.022006265022445
0.021105944289279
0.020204211388717
0.019298865769604
0.018391844419946
0.017485892596359
0.016582908927318
0.015683844823882
0.014789229452047
0.01389962133426
0.013015770618021
0.01213857770235
0.011268998914733
0.01040798544845
0.0095564673459956
0.0087153607684969
0.0078855768548504
0.0070680230624397
0.0062635984461359
0.0054731864729196
0.0046976463657045
0.0039378150635648
0.0031944994710933
0.0024684671208275
0.0017604535088404
0.001071141578405
0.0004011898741007
-0.00024882403492818
-0.0008783135356027
-0.0014868387956294
-0.0020738519135353
-0.0026391170906601
-0.003182025563218
-0.0037027022633148
-0.0042002229748295
-0.0046754613228586
-0.0051265382636001
-0.0055560182318235
-0.0059594711908155
-0.006343167308796
-0.0066963381043842
-0.0070309531901818
-0.0073227225890624
-0.007576389928003
-0.0077434259202888
0.027713594117055
0.026774208342811
0.025734164874654
0.024679487578011
0.023652897829959
0.022652977224561
0.021663265605283
0.020672222066937
0.019677241914707
0.01868084694916
0.017686377544726
0.016695986044491
0.015710615354603
0.014730710736553
0.013756783732742
0.012789591382563
0.011830068537689
0.010879207099398
0.0099379839574142
0.0090073466865777
0.0080882260024431
0.0071815474831095
0.0062882336566404
0.0054091982884418
0.0045453387434963
0.003697525942393
0.0028666073210847
0.0020533984137427
0.0012586735235975
0.00048317345694042
-0.00027241806181636
-0.0010074403515525
-0.0017213235287507
-0.0024134789009496
-0.0030834912958768
-0.003730799478753
-0.0043552274814216
-0.0049561140046912
-0.0055337244091638
-0.0060869706092557
-0.0066170568249637
-0.0071216538576223
-0.0076041076906394
-0.008058823309788
-0.0084938528477575
-0.0088955723869545
-0.00927924265336
-0.0096143278096509
-0.0099068948440307
-0.010096012981803
0.028972821169755
0.027941683917583
0.026786317139641
0.025614983548496
0.024480951699078
0.023381118811142
0.02229411000823
0.021205568287056
0.020112582589609
0.01901844787758
0.017927201968416
0.016841260666895
0.015761535337049
0.014688373206539
0.013622242548078
0.012563921407971
0.011514392324489
0.010474690599176
0.0094458233811489
0.0084287590549854
0.0074244459042498
0.0064338270657375
0.0054578429117718
0.0044974239143627
0.003553482468787
0.0026269010394324
0.0017185367297566
0.00082921252172787
-4.0293549581025e-05
-0.00088923878402994
-0.0017169434624263
-0.0025227496704157
-0.0033061046565302
-0.0040664232968905
-0.0048033296456341
-0.0055162549274796
-0.0062051086694557
-0.006869175001719
-0.0075089082680417
-0.0081230312734103
-0.008713176147199
-0.0092764779422782
-0.0098172636745105
-0.010328549802653
-0.010820574392784
-0.011276340413898
-0.011715096587128
-0.01209904892083
-0.012435989162066
-0.012650713324212
0.030365415476187
0.029234593502966
0.027952798714708
0.026654164404304
0.025403775384308
0.024196091141807
0.023003820923132
0.021809467220659
0.020609967105475
0.019409606311467
0.018213214917999
0.017023464998089
0.015841203467358
0.014666667940012
0.013500296547037
0.012342908734376
0.011195550917873
0.010059311551052
0.008935233277716
0.007824309745814
0.0067275121196468
0.0056458065426291
0.0045801560266918
0.0035315115305746
0.0025008030786964
0.0014889260821931
0.00049674714678547
-0.0004749042729237
-0.001425248925861
-0.0023535444669508
-0.0032591221745188
-0.0041413311453451
-0.004999647254457
-0.0058334946465279
-0.0066425572448001
-0.0074262618675756
-0.0081846385952573
-0.008916912397872
-0.0096237908855293
-0.01030377467542
-0.010959050746964
-0.011586111464343
-0.012190520838342
-0.012763632754009
-0.01331837384282
-0.013833765541776
-0.014333886583818
-0.014772552042378
-0.01515981109358
-0.01540416815931
0.031893610341611
0.030656966389697
0.029237889262729
0.027801566219577
0.026426239215148
0.025102961048045
0.023797477964532
0.022488905379619
0.021174270843502
0.019859106487071
0.018549120203273
0.01724720880051
0.015954111867015
0.014669951186045
0.013395157062716
0.012130618811475
0.010877466702112
0.0096368529351429
0.0084098630429129
0.0071975235832303
0.0060008369190898
0.0048208007066514
0.0036584080653821
0.0025146365689016
0.0013904382941223
0.00028672448241784
-0.00079562752209883
-0.0018557806171078
-0.0028929575086556
-0.0039064179668558
-0.0048955118257019
-0.0058595981538908
-0.006798198026956
-0.0077107469569861
-0.0085970171762909
-0.0094564300199018
-0.010289185797015
-0.011094436009133
-0.011873229537759
-0.012623797314219
-0.013349047447697
-0.014044694255642
-0.01471786747013
-0.01535792262669
-0.01598110747011
-0.016561737123111
-0.017129758817267
-0.01762930275247
-0.018073389658533
-0.018352031411083
0.033559800914465
0.032211869563596
0.03064489186717
0.029060867426621
0.027552519528699
0.026106234898237
0.024679687342557
0.023248468136495
0.021810042600172
0.02037147234232
0.018939407031436
0.017516915609208
0.016104584304502
0.014702424073541
0.013310894123427
0.011930989197766
0.010563945400562
0.0092109912299174
0.0078732648350333
0.0065518370138994
0.0052477540922163
0.0039620574419164
0.0026957807795468
0.0014499377970021
0.00022550968819178
-0.00097657181968149
-0.0021554170657196
-0.0033101781433516
-0.0044400809212767
-0.0055443858418767
-0.0066224721824128
-0.0076737100748063
-0.0086976865082728
-0.0096938469693636
-0.010662091415321
-0.011601824202688
-0.012513485934286
-0.013396122502697
-0.014251247406622
-0.01507674414508
-0.01587646545432
-0.016645166159052
-0.017391965094976
-0.018103802333144
-0.018801045845227
-0.019452445836766
-0.020095110143753
-0.020662019424294
-0.021170145788975
-0.021488552868016
0.035365398789817
0.033901204501768
0.032176056106718
0.030434923898617
0.028786139064032
0.027209831792578
0.0256544788791
0.024092190527353
0.022521346408818
0.020950827295767
0.019388237827509
0.017836732280642
0.016296702545274
0.014768075987284
0.013251393401199
0.011747797605825
0.010258654113587
0.0087852809684194
0.0073288828578309
0.0058905922982291
0.0044715182569174
0.0030727627220222
0.0016954128601149
0.00034052982025042
-0.00099086291684026
-0.0022978043158804
-0.0035793913545947
-0.0048347613656426
-0.0060631434368668
-0.0072637934065043
-0.0084361301295473
-0.0095795337385411
-0.010693684259126
-0.011778031761694
-0.012832653183123
-0.013856917205922
-0.01485159568203
-0.015815574912008
-0.016750998315119
-0.017655280631873
-0.018533520388848
-0.019379254665218
-0.020204149418192
-0.020992184039311
-0.021768867734167
-0.02249632978088
-0.023220453030073
-0.023861427845886
-0.024441463639322
-0.024806050947046
0.037310246361377
0.035725386907439
0.033832322575948
0.031925485192799
0.030129696514831
0.028416878552669
0.026725169674578
0.025023460207274
0.023311679363594
0.021600815138558
0.019899369276497
0.018210456813225
0.016534245528643
0.014870634959748
0.013220320043162
0.011584638734499
0.0099651089030509
0.0083631539152608
0.0067800633870695
0.0052170547080995
0.003675325205188
0.0021560632948876
0.00066043185545723
-0.00081045104120318
-0.002255512875775
-0.0036737480316205
-0.0050642285934754
-0.0064260683422735
-0.0077584989439673
-0.0090607694489762
-0.010332347334085
-0.01157262131574
-0.012781387352363
-0.013958101406277
-0.01510306901933
-0.016215612378842
-0.017296929612665
-0.018345698542858
-0.019364875754265
-0.02035127117473
-0.02131158969301
-0.022237827182579