FoamFile
{
    version     2.0;
    format      ascii;
    class       volScalarField;
    location    "0";
    object      p;
}
dimensions      [0 2 -2 0 0 0 0];
internalField   nonuniform List<scalar> 
22000
(
0.057228
0.057211
0.057179
0.057129
0.057062
0.056979
0.056878
0.056760
0.056625
0.056474
0.056306
0.056122
0.055922
0.055706
0.055475
0.055228
0.054966
0.054690
0.054399
0.054094
0.053776
0.053444
0.053100
0.052744
0.052375
0.051996
0.051606
0.051205
0.050796
0.050378
0.057512
0.057495
0.057461
0.057410
0.057342
0.057257
0.057154
0.057034
0.056896
0.056742
0.056571
0.056384
0.056180
0.055959
0.055723
0.055471
0.055204
0.054922
0.054624
0.054313
0.053987
0.053648
0.053295
0.052930
0.052552
0.052163
0.051763
0.051352
0.050931
0.050501
0.058035
0.058017
0.057983
0.057930
0.057860
0.057772
0.057665
0.057541
0.057399
0.057240
0.057063
0.056869
0.056658
0.056430
0.056185
0.055924
0.055647
0.055354
0.055045
0.054721
0.054382
0.054028
0.053660
0.053279
0.052885
0.052478
0.052059
0.051629
0.051187
0.050735
0.058764
0.058746
0.058710
0.058655
0.058582
0.058490
0.058379
0.058250
0.058102
0.057936
0.057752
0.057549
0.057329
0.057090
0.056834
0.056561
0.056270
0.055962
0.055638
0.055297
0.054939
0.054567
0.054178
0.053775
0.053357
0.052926
0.052481
0.052024
0.051553
0.051072
0.059670
0.059651
0.059613
0.059556
0.059480
0.059384
0.059268
0.059133
0.058979
0.058805
0.058612
0.058400
0.058168
0.057918
0.057649
0.057361
0.057054
0.056729
0.056386
0.056024
0.055645
0.055249
0.054836
0.054406
0.053960
0.053498
0.053021
0.052530
0.052024
0.051505
0.060728
0.060708
0.060668
0.060609
0.060529
0.060429
0.060309
0.060168
0.060006
0.059824
0.059622
0.059400
0.059157
0.058894
0.058610
0.058307
0.057983
0.057639
0.057275
0.056892
0.056488
0.056066
0.055624
0.055164
0.054685
0.054189
0.053675
0.053144
0.052596
0.052032
0.061913
0.061893
0.061852
0.061790
0.061707
0.061604
0.061478
0.061332
0.061164
0.060974
0.060764
0.060531
0.060277
0.060002
0.059704
0.059385
0.059043
0.058680
0.058295
0.057888
0.057459
0.057008
0.056536
0.056044
0.055529
0.054995
0.054439
0.053866
0.053270
0.052656
0.063206
0.063184
0.063142
0.063079
0.062994
0.062887
0.062757
0.062606
0.062433
0.062237
0.062018
0.061777
0.061513
0.061226
0.060915
0.060581
0.060223
0.059841
0.059434
0.059004
0.058549
0.058071
0.057567
0.057041
0.056489
0.055915
0.055315
0.054695
0.054048
0.053379
0.064584
0.064562
0.064519
0.064455
0.064368
0.064258
0.064127
0.063972
0.063794
0.063594
0.063369
0.063121
0.062849
0.062552
0.062230
0.061883
0.061510
0.061111
0.060685
0.060233
0.059753
0.059247
0.058713
0.058152
0.057563
0.056947
0.056303
0.055633
0.054933
0.054206
0.066028
0.066006
0.065963
0.065898
0.065811
0.065701
0.065568
0.065411
0.065232
0.065028
0.064800
0.064548
0.064270
0.063966
0.063636
0.063278
0.062893
0.062480
0.062037
0.061566
0.061064
0.060532
0.059969
0.059375
0.058749
0.058093
0.057403
0.056683
0.055928
0.055142
0.067520
0.067498
0.067455
0.067391
0.067304
0.067195
0.067062
0.066907
0.066728
0.066524
0.066296
0.066042
0.065762
0.065454
0.065119
0.064755
0.064362
0.063938
0.063483
0.062995
0.062475
0.061921
0.061331
0.060708
0.060047
0.059351
0.058617
0.057848
0.057037
0.056190
0.069041
0.069020
0.068978
0.068915
0.068830
0.068723
0.068594
0.068442
0.068265
0.068065
0.067839
0.067588
0.067309
0.067003
0.066667
0.066302
0.065904
0.065475
0.065011
0.064513
0.063978
0.063406
0.062795
0.062145
0.061454
0.060722
0.059946
0.059129
0.058264
0.057357
0.070574
0.070554
0.070514
0.070454
0.070373
0.070270
0.070146
0.070000
0.069830
0.069636
0.069417
0.069172
0.068899
0.068598
0.068267
0.067905
0.067509
0.067080
0.066613
0.066110
0.065566
0.064983
0.064355
0.063685
0.062967
0.062204
0.061390
0.060529
0.059613
0.058647
0.072105
0.072086
0.072049
0.071992
0.071916
0.071821
0.071704
0.071566
0.071405
0.071221
0.071013
0.070779
0.070517
0.070226
0.069905
0.069552
0.069164
0.068740
0.068278
0.067776
0.067231
0.066642
0.066005
0.065320
0.064583
0.063794
0.062948
0.062048
0.061084
0.060063
0.073618
0.073601
0.073567
0.073516
0.073447
0.073360
0.073253
0.073126
0.072978
0.072808
0.072614
0.072395
0.072149
0.071874
0.071568
0.071230
0.070857
0.070446
0.069995
0.069501
0.068962
0.068375
0.067737
0.067046
0.066296
0.065490
0.064618
0.063686
0.062680
0.061607
0.075102
0.075088
0.075058
0.075013
0.074953
0.074876
0.074781
0.074668
0.074536
0.074383
0.074207
0.074008
0.073782
0.073529
0.073244
0.072928
0.072575
0.072184
0.071751
0.071275
0.070749
0.070174
0.069542
0.068853
0.068100
0.067285
0.066396
0.065439
0.064399
0.063282
0.076547
0.076535
0.076510
0.076472
0.076422
0.076357
0.076277
0.076180
0.076067
0.075934
0.075781
0.075606
0.075405
0.075178
0.074921
0.074631
0.074306
0.073943
0.073536
0.073084
0.072582
0.072026
0.071410
0.070734
0.069987
0.069172
0.068277
0.067304
0.066239
0.065084
0.077943
0.077933
0.077914
0.077884
0.077845
0.077793
0.077730
0.077653
0.077560
0.077452
0.077324
0.077177
0.077006
0.076810
0.076586
0.076330
0.076039
0.075710
0.075337
0.074919
0.074448
0.073921
0.073332
0.072677
0.071948
0.071144
0.070252
0.069275
0.068194
0.067012
0.079282
0.079275
0.079262
0.079242
0.079214
0.079178
0.079133
0.079076
0.079008
0.078926
0.078828
0.078712
0.078575
0.078415
0.078228
0.078012
0.077762
0.077474
0.077143
0.076766
0.076335
0.075847
0.075294
0.074673
0.073972
0.073191
0.072314
0.071344
0.070258
0.069058
0.080560
0.080556
0.080550
0.080539
0.080525
0.080505
0.080479
0.080445
0.080403
0.080349
0.080283
0.080202
0.080103
0.079983
0.079839
0.079667
0.079463
0.079223
0.078941
0.078613
0.078231
0.077792
0.077286
0.076708
0.076048
0.075302
0.074454
0.073503
0.072425
0.071217
0.081771
0.081772
0.081772
0.081772
0.081771
0.081768
0.081763
0.081753
0.081738
0.081716
0.081684
0.081641
0.081582
0.081506
0.081409
0.081286
0.081134
0.080948
0.080721
0.080450
0.080125
0.079744
0.079293
0.078770
0.078161
0.077463
0.076657
0.075743
0.074689
0.073486
0.082915
0.082918
0.082925
0.082936
0.082949
0.082965
0.082981
0.082997
0.083011
0.083021
0.083025
0.083021
0.083006
0.082977
0.082930
0.082860
0.082764
0.082637
0.082472
0.082264
0.082005
0.081689
0.081304
0.080846
0.080299
0.079661
0.078908
0.078043
0.077028
0.075849
0.083988
0.083996
0.084010
0.084031
0.084059
0.084093
0.084131
0.084173
0.084217
0.084261
0.084302
0.084340
0.084370
0.084390
0.084395
0.084383
0.084347
0.084283
0.084184
0.084045
0.083857
0.083614
0.083303
0.082920
0.082445
0.081876
0.081187
0.080377
0.079405
0.078259
0.084992
0.085003
0.085024
0.085056
0.085099
0.085151
0.085211
0.085279
0.085354
0.085432
0.085512
0.085592
0.085669
0.085739
0.085800
0.085846
0.085874
0.085876
0.085849
0.085783
0.085674
0.085508
0.085280
0.084977
0.084587
0.084095
0.083482
0.082729
0.081795
0.080650
0.085928
0.085942
0.085970
0.086012
0.086069
0.086140
0.086222
0.086316
0.086421
0.086533
0.086653
0.086775
0.086900
0.087022
0.087140
0.087247
0.087341
0.087413
0.087462
0.087475
0.087450
0.087370
0.087235
0.087020
0.086729
0.086326
0.085816
0.085146
0.084289
0.083100
0.049978
0.049597
0.049211
0.048819
0.048423
0.048023
0.047620
0.047215
0.046807
0.046399
0.045989
0.045579
0.045170
0.044761
0.044355
0.043950
0.043549
0.043151
0.042758
0.042369
0.041986
0.041608
0.041237
0.040873
0.040517
0.040169
0.039830
0.039499
0.039177
0.038865
0.038563
0.038271
0.037990
0.037720
0.037460
0.037212
0.036975
0.036750
0.036536
0.036334
0.036143
0.035963
0.035795
0.035639
0.035493
0.035358
0.035234
0.035121
0.035017
0.034923
0.050091
0.049704
0.049309
0.048908
0.048504
0.048096
0.047685
0.047272
0.046856
0.046438
0.046020
0.045601
0.045182
0.044765
0.044348
0.043934
0.043523
0.043115
0.042712
0.042313
0.041919
0.041532
0.041151
0.040777
0.040411
0.040053
0.039703
0.039363
0.039033
0.038713
0.038403
0.038104
0.037815
0.037539
0.037274
0.037020
0.036779
0.036550
0.036333
0.036127
0.035934
0.035754
0.035585
0.035428
0.035282
0.035149
0.035026
0.034915
0.034815
0.034725
0.050307
0.049903
0.049489
0.049069
0.048645
0.048218
0.047789
0.047357
0.046922
0.046486
0.046049
0.045611
0.045173
0.044737
0.044302
0.043869
0.043440
0.043014
0.042592
0.042175
0.041765
0.041360
0.040962
0.040572
0.040190
0.039817
0.039453
0.039099
0.038756
0.038423
0.038101
0.037791
0.037492
0.037206
0.036932
0.036671
0.036422
0.036186
0.035963
0.035753
0.035557
0.035373
0.035201
0.035043
0.034897
0.034763
0.034642
0.034532
0.034435
0.034350
0.050617
0.050186
0.049742
0.049292
0.048838
0.048383
0.047926
0.047466
0.047004
0.046541
0.046077
0.045612
0.045148
0.044685
0.044224
0.043766
0.043311
0.042860
0.042414
0.041974
0.041540
0.041112
0.040692
0.040281
0.039878
0.039484
0.039101
0.038729
0.038367
0.038017
0.037679
0.037353
0.037041
0.036741
0.036454
0.036182
0.035922
0.035677
0.035446
0.035229
0.035026
0.034837
0.034661
0.034500
0.034352
0.034218
0.034097
0.033991
0.033898
0.033822
0.051015
0.050549
0.050066
0.049575
0.049083
0.048590
0.048097
0.047603
0.047106
0.046607
0.046108
0.045609
0.045112
0.044616
0.044122
0.043631
0.043145
0.042662
0.042186
0.041715
0.041251
0.040795
0.040347
0.039909
0.039479
0.039061
0.038653
0.038256
0.037872
0.037500
0.037142
0.036797
0.036465
0.036148
0.035846
0.035558
0.035286
0.035028
0.034786
0.034560
0.034348
0.034152
0.033972
0.033806
0.033656
0.033521
0.033402
0.033298
0.033210
0.033144
0.051501
0.050993
0.050461
0.049921
0.049381
0.048843
0.048306
0.047768
0.047229
0.046688
0.046147
0.045607
0.045068
0.044531
0.043998
0.043468
0.042943
0.042423
0.041909
0.041402
0.040903
0.040412
0.039931
0.039459
0.038998
0.038549
0.038111
0.037686
0.037275
0.036877
0.036493
0.036125
0.035771
0.035433
0.035112
0.034806
0.034517
0.034245
0.033990
0.033751
0.033530
0.033326
0.033139
0.032969
0.032816
0.032680
0.032562
0.032461
0.032381
0.032327
0.052078
0.051519
0.050931
0.050332
0.049735
0.049143
0.048555
0.047967
0.047378
0.046787
0.046196
0.045607
0.045020
0.044436
0.043856
0.043280
0.042710
0.042145
0.041588
0.041039
0.040498
0.039967
0.039446
0.038936
0.038438
0.037952
0.037480
0.037021
0.036578
0.036149
0.035736
0.035340
0.034961
0.034598
0.034254
0.033927
0.033619
0.033329
0.033059
0.032807
0.032574
0.032360
0.032166
0.031991
0.031835
0.031698
0.031582
0.031486
0.031415
0.031376
0.052748
0.052133
0.051477
0.050810
0.050148
0.049495
0.048847
0.048202
0.047555
0.046907
0.046259
0.045614
0.044971
0.044332
0.043699
0.043070
0.042448
0.041833
0.041225
0.040627
0.040039
0.039461
0.038894
0.038340
0.037799
0.037272
0.036760
0.036263
0.035783
0.035319
0.034873
0.034444
0.034035
0.033644
0.033274
0.032923
0.032593
0.032283
0.031995
0.031727
0.031482
0.031257
0.031054
0.030873
0.030714
0.030578
0.030464
0.030375
0.030315
0.030295
0.053519
0.052838
0.052106
0.051361
0.050625
0.049902
0.049188
0.048477
0.047765
0.047052
0.046340
0.045631
0.044926
0.044225
0.043530
0.042842
0.042161
0.041488
0.040824
0.040171
0.039528
0.038897
0.038279
0.037675
0.037085
0.036511
0.035954
0.035413
0.034891
0.034387
0.033902
0.033438
0.032994
0.032572
0.032171
0.031793
0.031438
0.031106
0.030798
0.030513
0.030253
0.030016
0.029805
0.029618
0.029456
0.029320
0.029210
0.029129
0.029083
0.029086
0.054395
0.053643
0.052824
0.051990
0.051170
0.050369
0.049581
0.048798
0.048014
0.047229
0.046445
0.045664
0.044888
0.044118
0.043355
0.042600
0.041853
0.041115
0.040387
0.039672
0.038968
0.038278
0.037602
0.036941
0.036297
0.035670
0.035062
0.034472
0.033902
0.033353
0.032826
0.032321
0.031839
0.031380
0.030947
0.030538
0.030155
0.029797
0.029467
0.029163
0.028887
0.028638
0.028417
0.028225
0.028061
0.027927
0.027823
0.027753
0.027723
0.027752
0.055382
0.054551
0.053636
0.052704
0.051790
0.050903
0.050033
0.049170
0.048306
0.047441
0.046577
0.045716
0.044862
0.044015
0.043177
0.042347
0.041526
0.040716
0.039918
0.039133
0.038362
0.037605
0.036865
0.036142
0.035436
0.034750
0.034085
0.033440
0.032818
0.032218
0.031643
0.031093
0.030568
0.030070
0.029599
0.029156
0.028742
0.028357
0.028002
0.027677
0.027384
0.027122
0.026892
0.026694
0.026529
0.026398
0.026303
0.026246
0.026237
0.026297
0.056486
0.055571
0.054550
0.053508
0.052491
0.051509
0.050550
0.049599
0.048648
0.047695
0.046742
0.045794
0.044854
0.043922
0.043000
0.042087
0.041186
0.040296
0.039420
0.038558
0.037712
0.036882
0.036070
0.035277
0.034505
0.033753
0.033025
0.032319
0.031639
0.030983
0.030355
0.029754
0.029182
0.028640
0.028128
0.027647
0.027199
0.026783
0.026402
0.026055
0.025743
0.025466
0.025227
0.025024
0.024860
0.024735
0.024651
0.024612
0.024627
0.024725
0.057713
0.056708
0.055571
0.054408
0.053279
0.052194
0.051138
0.050092
0.049045
0.047996
0.046947
0.045903
0.044868
0.043843
0.042829
0.041826
0.040836
0.039859
0.038897
0.037950
0.037022
0.036111
0.035220
0.034351
0.033504
0.032681
0.031882
0.031110
0.030365
0.029648
0.028961
0.028305
0.027681
0.027090
0.026533
0.026011
0.025525
0.025076
0.024666
0.024294
0.023963
0.023672
0.023424
0.023217
0.023055
0.022938
0.022868
0.022851
0.022897
0.023038
0.059069
0.057968
0.056704
0.055410
0.054159
0.052963
0.051803
0.050654
0.049504
0.048350
0.047196
0.046048
0.044909
0.043783
0.042669
0.041568
0.040480
0.039408
0.038351
0.037313
0.036294
0.035295
0.034318
0.033365
0.032436
0.031534
0.030660
0.029814
0.028999
0.028214
0.027463
0.026746
0.026065
0.025420
0.024814
0.024247
0.023720
0.023235
0.022794
0.022396
0.022044
0.021738
0.021480
0.021271
0.021113
0.021007
0.020956
0.020965
0.021048
0.021239
0.060556
0.059355
0.057955
0.056519
0.055137
0.053822
0.052550
0.051291
0.050029
0.048762
0.047494
0.046233
0.044983
0.043747
0.042524
0.041316
0.040123
0.038947
0.037789
0.036650
0.035533
0.034438
0.033367
0.032321
0.031302
0.030316
0.029359
0.028433
0.027541
0.026683
0.025862
0.025078
0.024335
0.023632
0.022972
0.022356
0.021786
0.021261
0.020786
0.020360
0.019986
0.019665
0.019398
0.019187
0.019035
0.018942
0.018913
0.018955
0.019080
0.019330
0.062178
0.060872
0.059326
0.057739
0.056217
0.054776
0.053384
0.052008
0.050626
0.049238
0.047848
0.046465
0.045095
0.043740
0.042400
0.041077
0.039770
0.038481
0.037212
0.035965
0.034741
0.033543
0.032371
0.031228
0.030118
0.029033
0.027984
0.026970
0.025993
0.025055
0.024158
0.023303
0.022492
0.021726
0.021008
0.020339
0.019721
0.019155
0.018644
0.018189
0.017793
0.017455
0.017181
0.016969
0.016825
0.016749
0.016746
0.016823
0.016997
0.017312
0.063934
0.062520
0.060819
0.059071
0.057402
0.055828
0.054312
0.052810
0.051301
0.049781
0.048260
0.046747
0.045248
0.043766
0.042301
0.040854
0.039424
0.038014
0.036626
0.035261
0.033923
0.032612
0.031330
0.030080
0.028863
0.027679
0.026533
0.025425
0.024358
0.023334
0.022355
0.021422
0.020538
0.019704
0.018924
0.018197
0.017528
0.016917
0.016368
0.015882
0.015463
0.015110
0.014830
0.014620
0.014489
0.014434
0.014464
0.014583
0.014811
0.015196
0.065822
0.064298
0.062435
0.060519
0.058696
0.056984
0.055335
0.053701
0.052055
0.050397
0.048736
0.047084
0.045448
0.043830
0.042231
0.040650
0.039089
0.037549
0.036034
0.034544
0.033082
0.031650
0.030250
0.028885
0.027554
0.026262
0.025011
0.023803
0.022639
0.021522
0.020454
0.019438
0.018475
0.017568
0.016720
0.015932
0.015207
0.014548
0.013959
0.013439
0.012995
0.012626
0.012341
0.012135
0.012020
0.011993
0.012063
0.012234
0.012527
0.012991
0.067838
0.066202
0.064170
0.062080
0.060099
0.058244
0.056458
0.054684
0.052894
0.051088
0.049280
0.047481
0.045699
0.043937
0.042194
0.040472
0.038770
0.037092
0.035439
0.033815
0.032221
0.030661
0.029135
0.027646
0.026196
0.024787
0.023424
0.022107
0.020839
0.019623
0.018460
0.017354
0.016307
0.015322
0.014400
0.013547
0.012763
0.012052
0.011418
0.010863
0.010391
0.010004
0.009710
0.009507
0.009407
0.009407
0.009521
0.009752
0.010121
0.010676
0.069976
0.068223
0.066019
0.063752
0.061613
0.059613
0.057682
0.055759
0.053815
0.051854
0.049891
0.047938
0.046004
0.044089
0.042195
0.040321
0.038469
0.036643
0.034845
0.033078
0.031344
0.029646
0.027985
0.026365
0.024788
0.023256
0.021772
0.020340
0.018962
0.017639
0.016376
0.015175
0.014038
0.012970
0.011971
0.011048
0.010200
0.009435
0.008752
0.008160
0.007657
0.007251
0.006946
0.006744
0.006655
0.006678
0.006831
0.007116
0.007561
0.008217
0.072228
0.070353
0.067970
0.065530
0.063236
0.061090
0.059011
0.056931
0.054825
0.052701
0.050575
0.048462
0.046367
0.044293
0.042238
0.040205
0.038196
0.036214
0.034261
0.032342
0.030459
0.028614
0.026811
0.025052
0.023339
0.021675
0.020064
0.018509
0.017012
0.015578
0.014208
0.012906
0.011674
0.010518
0.009438
0.008442
0.007528
0.006707
0.005974
0.005344
0.004810
0.004388
0.004072
0.003876
0.003800
0.003849
0.004036
0.004366
0.004876
0.005626
0.074580
0.072580
0.070018
0.067407
0.064961
0.062668
0.060435
0.058192
0.055917
0.053623
0.051327
0.049045
0.046781
0.044538
0.042316
0.040116
0.037941
0.035795
0.033681
0.031602
0.029561
0.027562
0.025608
0.023701
0.021846
0.020044
0.018298
0.016613
0.014992
0.013439
0.011956
0.010548
0.009217
0.007968
0.006804
0.005731
0.004750
0.003870
0.003090
0.002422
0.001861
0.001428
0.001108
0.000932
0.000878
0.000976
0.001214
0.001602
0.002172
0.002996
0.076986
0.074881
0.072160
0.069389
0.066789
0.064341
0.061948
0.059542
0.057100
0.054636
0.052168
0.049709
0.047269
0.044849
0.042449
0.040074
0.037724
0.035405
0.033120
0.030873
0.028667
0.026505
0.024390
0.022327
0.020319
0.018370
0.016482
0.014659
0.012906
0.011225
0.009622
0.008100
0.006662
0.005314
0.004059
0.002903
0.001851
0.000908
0.000079
-0.000627
-0.001210
-0.001652
-0.001963
-0.002110
-0.002123
-0.001946
-0.001629
-0.001123
-0.000452
0.000440
0.079334
0.077173
0.074363
0.071461
0.068697
0.066068
0.063496
0.060919
0.058314
0.055684
0.053047
0.050414
0.047795
0.045194
0.042613
0.040056
0.037526
0.035028
0.032566
0.030144
0.027766
0.025435
0.023154
0.020927
0.018760
0.016657
0.014619
0.012651
0.010757
0.008942
0.007209
0.005563
0.004009
0.002552
0.001198
-0.000049
-0.001182
-0.002195
-0.003080
-0.003831
-0.004440
-0.004897
-0.005201
-0.005326
-0.005294
-0.005042
-0.004639
-0.003966
-0.003126
-0.002047
0.081430
0.079252
0.076508
0.073572
0.070668
0.067848
0.065079
0.062319
0.059545
0.056752
0.053949
0.051147
0.048355
0.045578
0.042821
0.040085
0.037376
0.034697
0.032054
0.029453
0.026898
0.024392
0.021940
0.019546
0.017212
0.014943
0.012747
0.010627
0.008586
0.006630
0.004762
0.002988
0.001313
-0.000257
-0.001717
-0.003059
-0.004280
-0.005370
-0.006324
-0.007133
-0.007790
-0.008286
-0.008611
-0.008755
-0.008711
-0.008451
-0.008001
-0.007251
-0.006296
-0.004769
0.034798
0.034668
0.034570
0.034504
0.034467
0.034458
0.034471
0.034504
0.034552
0.034613
0.034682
0.034758
0.034836
0.034912
0.034985
0.035052
0.035110
0.035157
0.035191
0.035210
0.035211
0.035195
0.035160
0.035104
0.035027
0.034928
0.034805
0.034661
0.034494
0.034301
0.034084
0.033845
0.033581
0.033294
0.032983
0.032649
0.032291
0.031911
0.031509
0.031085
0.030639
0.030172
0.029683
0.029172
0.028639
0.028083
0.027503
0.026900
0.026273
0.025622
0.024946
0.024245
0.023519
0.022767
0.021991
0.021188
0.020359
0.019504
0.018621
0.017709
0.016766
0.015792
0.014785
0.013744
0.012670
0.011563
0.010426
0.009263
0.008077
0.006871
0.005649
0.004413
0.003168
0.001921
0.000703
0.034609
0.034489
0.034405
0.034355
0.034337
0.034346
0.034379
0.034430
0.034495
0.034573
0.034658
0.034749
0.034840
0.034929
0.035013
0.035089
0.035156
0.035210
0.035250
0.035273
0.035279
0.035265
0.035232
0.035178
0.035101
0.035002
0.034880
0.034734
0.034565
0.034371
0.034154
0.033911
0.033645
0.033355
0.033041
0.032703
0.032344
0.031963
0.031558
0.031132
0.030684
0.030215
0.029727
0.029216
0.028682
0.028125
0.027545
0.026942
0.026315
0.025662
0.024984
0.024281
0.023553
0.022801
0.022024
0.021222
0.020396
0.019542
0.018660
0.017748
0.016806
0.015831
0.014822
0.013778
0.012700
0.011592
0.010453
0.009283
0.008090
0.006876
0.005649
0.004410
0.003167
0.001921
0.000703
0.034248
0.034152
0.034096
0.034078
0.034095
0.034140
0.034208
0.034293
0.034393
0.034503
0.034619
0.034737
0.034854
0.034965
0.035070
0.035164
0.035245
0.035312
0.035362
0.035393
0.035405
0.035396
0.035367
0.035314
0.035239
0.035139
0.035016
0.034869
0.034698
0.034501
0.034280
0.034033
0.033762
0.033467
0.033148
0.032806
0.032441
0.032053
0.031646
0.031218
0.030768
0.030297
0.029805
0.029293
0.028759
0.028202
0.027622
0.027018
0.026389
0.025734
0.025055
0.024350
0.023621
0.022867
0.022088
0.021283
0.020456
0.019604
0.018727
0.017821
0.016881
0.015907
0.014897
0.013851
0.012765
0.011642
0.010490
0.009312
0.008112
0.006889
0.005653
0.004408
0.003162
0.001916
0.000701
0.033741
0.033678
0.033662
0.033692
0.033759
0.033857
0.033977
0.034114
0.034262
0.034418
0.034577
0.034733
0.034885
0.035028
0.035159
0.035277
0.035378
0.035461
0.035524
0.035566
0.035586
0.035583
0.035557
0.035506
0.035432
0.035332
0.035208
0.035058
0.034883
0.034682
0.034455
0.034202
0.033925
0.033622
0.033295
0.032945
0.032573
0.032179
0.031765
0.031330
0.030877
0.030407
0.029916
0.029404
0.028871
0.028306
0.027726
0.027123
0.026493
0.025836
0.025153
0.024443
0.023709
0.022952
0.022173
0.021371
0.020546
0.019694
0.018818
0.017915
0.016983
0.016016
0.015006
0.013953
0.012855
0.011721
0.010552
0.009351
0.008134
0.006899
0.005656
0.004403
0.003152
0.001906
0.000697
0.033092
0.033076
0.033116
0.033209
0.033345
0.033512
0.033701
0.033904
0.034115
0.034330
0.034543
0.034748
0.034943
0.035124
0.035288
0.035434
0.035558
0.035660
0.035737
0.035789
0.035817
0.035819
0.035797
0.035748
0.035674
0.035573
0.035447
0.035294
0.035114
0.034907
0.034673
0.034411
0.034125
0.033812
0.033475
0.033115
0.032732
0.032329
0.031908
0.031468
0.031010
0.030535
0.030042
0.029533
0.029005
0.028440
0.027860
0.027255
0.026623
0.025962
0.025272
0.024557
0.023817
0.023054
0.022269
0.021465
0.020645
0.019804
0.018941
0.018044
0.017114
0.016148
0.015139
0.014088
0.012975
0.011817
0.010629
0.009406
0.008162
0.006901
0.005646
0.004388
0.003138
0.001892
0.000690
0.032314
0.032357
0.032469
0.032644
0.032867
0.033122
0.033396
0.033681
0.033969
0.034255
0.034535
0.034796
0.035040
0.035263
0.035464
0.035640
0.035788
0.035907
0.035998
0.036060
0.036094
0.036101
0.036081
0.036034
0.035958
0.035856
0.035727
0.035571
0.035384
0.035169
0.034926
0.034654
0.034356
0.034031
0.033680
0.033306
0.032911
0.032497
0.032066
0.031618
0.031155
0.030680
0.030191
0.029673
0.029138
0.028600
0.028025
0.027415
0.026778
0.026110
0.025412
0.024687
0.023936
0.023165
0.022376
0.021573
0.020752
0.019916
0.019064
0.018190
0.017282
0.016326
0.015318
0.014241
0.013116
0.011937
0.010718
0.009465
0.008193
0.006900
0.005622
0.004356
0.003110
0.001871
0.000679
0.031412
0.031531
0.031734
0.032010
0.032340
0.032702
0.033079
0.033457
0.033840
0.034216
0.034562
0.034884
0.035185
0.035455
0.035694
0.035899
0.036070
0.036206
0.036307
0.036376
0.036415
0.036424
0.036405
0.036357
0.036280
0.036175
0.036043
0.035879
0.035687
0.035464
0.035210
0.034926
0.034613
0.034272
0.033905
0.033514
0.033102
0.032673
0.032229
0.031774
0.031307
0.030831
0.030341
0.029832
0.029310
0.028780
0.028203
0.027594
0.026953
0.026277
0.025568
0.024828
0.024064
0.023280
0.022482
0.021676
0.020863
0.020042
0.019204
0.018341
0.017453
0.016529
0.015543
0.014431
0.013290
0.012084
0.010825
0.009526
0.008214
0.006891
0.005587
0.004303
0.003062
0.001835
0.000662
0.030391
0.030605
0.030920
0.031321
0.031781
0.032270
0.032767
0.033262
0.033746
0.034208
0.034638
0.035036
0.035393
0.035710
0.035985
0.036218
0.036408
0.036555
0.036662
0.036733
0.036773
0.036782
0.036761
0.036711
0.036632
0.036525
0.036389
0.036221
0.036021
0.035788
0.035522
0.035223
0.034893
0.034532
0.034143
0.033731
0.033299
0.032851
0.032393
0.031928
0.031457
0.030982
0.030500
0.030007
0.029497
0.028967
0.028400
0.027795
0.027150
0.026463
0.025738
0.024978
0.024194
0.023391
0.022581
0.021773
0.020965
0.020158
0.019349
0.018524
0.017647
0.016722
0.015771
0.014683
0.013521
0.012266
0.010953
0.009595
0.008219
0.006858
0.005530
0.004231
0.002995
0.001777
0.000635
0.029254
0.029587
0.030039
0.030592
0.031206
0.031842
0.032478
0.033099
0.033699
0.034269
0.034795
0.035262
0.035674
0.036036
0.036344
0.036599
0.036800
0.036951
0.037057
0.037126
0.037161
0.037166
0.037142
0.037090
0.037009
0.036900
0.036761
0.036589
0.036381
0.036137
0.035857
0.035541
0.035190
0.034805
0.034391
0.033951
0.033493
0.033022
0.032546
0.032069
0.031595
0.031127
0.030657
0.030183
0.029691
0.029175
0.028620
0.028021
0.027370
0.026669
0.025922
0.025133
0.024321
0.023492
0.022665
0.021847
0.021048
0.020267
0.019492
0.018712
0.017874
0.016975
0.016018
0.014984
0.013790
0.012475
0.011092
0.009664
0.008210
0.006793
0.005429
0.004133
0.002912
0.001702
0.000597
0.028007
0.028483
0.029104
0.029836
0.030628
0.031434
0.032227
0.032993
0.033724
0.034404
0.035018
0.035566
0.036038
0.036441
0.036776
0.037044
0.037246
0.037391
0.037487
0.037545
0.037571
0.037569
0.037540
0.037484
0.037402
0.037293
0.037153
0.036977
0.036763
0.036508
0.036213
0.035877
0.035501
0.035087
0.034641
0.034168
0.033677
0.033176
0.032677
0.032187
0.031713
0.031254
0.030805
0.030357
0.029893
0.029403
0.028865
0.028273
0.027616
0.026896
0.026119
0.025292
0.024441
0.023573
0.022720
0.021891
0.021104
0.020355
0.019627
0.018903
0.018131
0.017293
0.016349
0.015310
0.014085
0.012712
0.011245
0.009721
0.008182
0.006700
0.005276
0.003984
0.002797
0.001619
0.000556
0.026658
0.027304
0.028123
0.029068
0.030066
0.031064
0.032037
0.032973
0.033847
0.034651
0.035365
0.035984
0.036506
0.036937
0.037285
0.037551
0.037742
0.037867
0.037942
0.037981
0.037992
0.037978
0.037943
0.037885
0.037804
0.037698
0.037560
0.037384
0.037164
0.036899
0.036587
0.036228
0.035823
0.035375
0.034890
0.034374
0.033842
0.033304
0.032777
0.032270
0.031797
0.031355
0.030935
0.030526
0.030103
0.029649
0.029135
0.028556
0.027891
0.027147
0.026329
0.025452
0.024546
0.023626
0.022739
0.021890
0.021119
0.020410
0.019749
0.019106
0.018414
0.017649
0.016742
0.015693
0.014431
0.012985
0.011418
0.009765
0.008123
0.006554
0.005085
0.003787
0.002618
0.001516
0.000515
0.025211
0.026060
0.027111
0.028300
0.029536
0.030756
0.031931
0.033043
0.034077
0.035011
0.035825
0.036511
0.037075
0.037525
0.037871
0.038119
0.038280
0.038370
0.038410
0.038419
0.038408
0.038381
0.038339
0.038282
0.038207
0.038108
0.037977
0.037804
0.037581
0.037307
0.036977
0.036592
0.036152
0.035662
0.035130
0.034563
0.033978
0.033391
0.032828
0.032303
0.031832
0.031415
0.031040
0.030685
0.030318
0.029915
0.029437
0.028874
0.028198
0.027425
0.026551
0.025609
0.024630
0.023642
0.022704
0.021827
0.021076
0.020417
0.019849
0.019308
0.018722
0.018053
0.017194
0.016152
0.014839
0.013307
0.011603
0.009799
0.008029
0.006337
0.004833
0.003535
0.002399
0.001380
0.000466
0.023672
0.024761
0.026082
0.027552
0.029058
0.030529
0.031931
0.033236
0.034434
0.035501
0.036413
0.037161
0.037752
0.038204
0.038531
0.038740
0.038850
0.038885
0.038875
0.038844
0.038804
0.038760
0.038714
0.038662
0.038600
0.038517
0.038399
0.038234
0.038010
0.037729
0.037380
0.036964
0.036483
0.035945
0.035354
0.034724
0.034073
0.033424
0.032814
0.032266
0.031800
0.031421
0.031108
0.030827
0.030538
0.030200
0.029769
0.029228
0.028542
0.027731
0.026786
0.025761
0.024684
0.023608
0.022597
0.021684
0.020955
0.020360
0.019913
0.019503
0.019060
0.018507
0.017715
0.016694
0.015316
0.013682
0.011803
0.009821
0.007885
0.006048
0.004501
0.003202
0.002167
0.001221
0.000348
0.022046
0.023417
0.025051
0.026839
0.028647
0.030396
0.032054
0.033561
0.034933
0.036136
0.037143
0.037941
0.038544
0.038977
0.039260
0.039403
0.039438
0.039396
0.039317
0.039233
0.039159
0.039098
0.039052
0.039013
0.038973
0.038916
0.038821
0.038671
0.038445
0.038162
0.037791
0.037340
0.036811
0.036214
0.035555
0.034846
0.034112
0.033384
0.032714
0.032139
0.031692
0.031357
0.031128
0.030946
0.030759
0.030507
0.030138
0.029625
0.028928
0.028068
0.027033
0.025900
0.024698
0.023508
0.022398
0.021437
0.020731
0.020223
0.019928
0.019682
0.019425
0.019012
0.018318
0.017325
0.015874
0.014115
0.012015
0.009824
0.007680
0.005667
0.004077
0.002787
0.001874
0.001043
0.000212
0.020338
0.022036
0.024027
0.026174
0.028319
0.030367
0.032268
0.034022
0.035584
0.036929
0.038022
0.038856
0.039453
0.039844
0.040052
0.040101
0.040024
0.039878
0.039712
0.039563
0.039450
0.039375
0.039335
0.039321
0.039316
0.039296
0.039235
0.039112
0.038913
0.038604
0.038204
0.037711
0.037126
0.036459
0.035718
0.034916
0.034075
0.033246
0.032498
0.031887
0.031460
0.031198
0.031083
0.031031
0.030978
0.030835
0.030545
0.030067
0.029358
0.028436
0.027290
0.026019
0.024657
0.023324
0.022081
0.021056
0.020374
0.019981
0.019878
0.019840
0.019817
0.019576
0.019014
0.018052
0.016526
0.014609
0.012241
0.009805
0.007396
0.005184
0.003542
0.002271
0.001505
0.000838
0.000081
0.018552
0.020625
0.023021
0.025571
0.028092
0.030471
0.032658
0.034646
0.036403
0.037886
0.039057
0.039912
0.040480
0.040798
0.040895
0.040809
0.040583
0.040304
0.040031
0.039807
0.039651
0.039566
0.039545
0.039570
0.039616
0.039648
0.039632
0.039541
0.039350
0.039038
0.038609
0.038067
0.037415
0.036666
0.035827
0.034912
0.033939
0.032979
0.032130
0.031478
0.031082
0.030921
0.030955
0.031074
0.031188
0.031183
0.030992
0.030555
0.029834
0.028837
0.027553
0.026103
0.024544
0.023028
0.021616
0.020509
0.019849
0.019609
0.019749
0.019969
0.020234
0.020203
0.019808
0.018883
0.017285
0.015164
0.012480
0.009754
0.007016
0.004585
0.002860
0.001643
0.001061
0.000605
-0.000050
0.016694
0.019190
0.022042
0.025043
0.027975
0.030709
0.033198
0.035438
0.037395
0.039013
0.040249
0.041105
0.041617
0.041827
0.041772
0.041499
0.041084
0.040643
0.040244
0.039933
0.039733
0.039646
0.039658
0.039742
0.039858
0.039960
0.040004
0.039953
0.039780
0.039460
0.038996
0.038395
0.037662
0.036813
0.035858
0.034806
0.033674
0.032547
0.031565
0.030862
0.030518
0.030494
0.030725
0.031060
0.031384
0.031550
0.031481
0.031095
0.030361
0.029273
0.027816
0.026137
0.024331
0.022588
0.020961
0.019747
0.019116
0.019070
0.019500
0.020054
0.020668
0.020898
0.020707
0.019822
0.018163
0.015775
0.012733
0.009659
0.006522
0.003852
0.001957
0.000895
0.000545
0.000347
-0.000200
0.014778
0.017740
0.021097
0.024594
0.027972
0.031084
0.033893
0.036401
0.038562
0.040307
0.041592
0.042429
0.042858
0.042920
0.042660
0.042147
0.041489
0.040858
0.040311
0.039904
0.039664
0.039588
0.039654
0.039818
0.040027
0.040221
0.040343
0.040344
0.040192