/*--------------------------------*- C++ -*----------------------------------*\
| =========                 |                                                 |
| \\      /  F ield         | OpenFOAM: The Open Source CFD Toolbox           |
|  \\    /   O peration     | Version:  v1912                                 |
|   \\  /    A nd           | Website:  www.openfoam.com                      |
|    \\/     M anipulation  |                                                 |
\*---------------------------------------------------------------------------*/
FoamFile
{
    version     2.0;
    format      ascii;
    class       surfaceScalarField;
    location    "0";
    object      phi;
}
// * * * * * * * * * * * * * * * * * * * * * * * * * * * * * * * * * * * * * //

dimensions      [0 3 -1 0 0 0 0];
oriented        oriented;


internalField   nonuniform List<scalar> 
43645
(
0.395122726831
-3.8537450109148e-06
0.39513506921902
-1.2342361650582e-05
0.39515622987276
-2.1160625177234e-05
0.39518628443709
-3.0054534837812e-05
0.39522522639032
-3.8941923614523e-05
0.39527302381996
-4.7797400402705e-05
0.39532963182743
-5.6607978830512e-05
0.39539499693076
-6.5365075467717e-05
0.3954690555878
-7.4058629980581e-05
0.39555173711149
-8.2681497521835e-05
0.39564295858291
-9.1221446101663e-05
0.39574263172666
-9.9673119349431e-05
0.39585065173165
-0.00010801998142836
0.39596691373337
-0.00011626197903943
0.39609128726252
-0.00012437350724989
0.39622365462643
-0.00013236734281934
0.39636385187306
-0.00014019722619395
0.39651175782076
-0.00014790592794806
0.39666715770274
-0.00015539986274591
0.39682994937898
-0.00016279165752434
0.39699982862401
-0.00016987922665308
0.39717676596192
-0.00017693731987672
0.3973602807105
-0.00018351473068877
0.3975505416213
-0.0001902608930826
0.39774669434123
-0.00019615270216651
0.39794939640938
-0.00020270205037827
0.39815697193703
-0.00020757550966169
0.39837122430825
-0.00021425235332528
0.39858869632575
-0.00021747199964378
-0.00022480301785829
0.39881349936191
0.3729461847392
-7.4836988479151e-06
0.37295780368956
-2.3961263902873e-05
0.37297785788375
-4.1214770326164e-05
0.37300641843164
-5.8615033806304e-05
0.37304347869702
-7.6002140736995e-05
0.37308901230812
-9.3330964243106e-05
0.37314298323546
-0.00011057885999718
0.37320534805353
-0.00012772984859039
0.37327605366679
-0.00014476419948022
0.37335504032085
-0.00016166810911992
0.37344223675853
-0.00017841784252782
0.37353756734435
-0.00019500366523184
0.37364094087821
-0.0002113934765499
0.3737522671865
-0.00022758824985308
0.37387143135518
-0.00024353763956444
0.37399833226794
-0.00025926822036664
0.37413282321345
-0.00027468813743818
0.37427480121495
-0.00028988389616356
0.37442407015838
-0.00030466877363655
0.37458054741227
-0.00031926887964197
0.37474394866126
-0.00033328044437052
0.37491426476293
-0.00034725339080397
0.37509103678293
-0.00036028672018946
0.37527445377749
-0.00037367785744264
0.3754636877767
-0.00038538667116285
0.37565941488763
-0.00039842913116402
0.37586000000799
-0.00040816059965559
0.37606726012012
-0.00042151243539559
0.37627781325502
-0.00042802510516443
-0.00044282151921288
0.37649583178675
0.35201446850457
-1.1054633666798e-05
0.35202586615571
-3.5358867284204e-05
0.35204542195317
-6.0770519670505e-05
0.35207320928105
-8.6402314140163e-05
0.35210922697359
-0.00011201978668769
0.35215345259821
-0.0001375565435316
0.35220585482121
-0.00016298103894197
0.35226639760119
-0.00018827258594663
0.35233503788891
-0.00021340444592873
0.35241172858549
-0.00023835876592176
0.35249641274735
-0.00026310196597094
0.3525890313471
-0.00028762222803597
0.35268951066217
-0.00031187275596428
0.3527977807126
-0.00033585826601599
0.35291374638602
-0.00035950327985393
0.3530373303237
-0.00038285212611401
0.35316840654323
-0.00040576432594033
0.35330689982754
-0.00042837715041154
0.35345263320471
-0.00045040212136482
0.35360555761602
-0.00047219326219141
0.35376540159325
-0.00049312439314149
0.35393220017669
-0.00051405194618204
0.35410549128624
-0.00053357780167308
0.35428553026473
-0.00055371680795611
0.35447144914496
-0.00057130552311393
0.354664037791
-0.00059101774877016
0.35486153763193
-0.00060566041161919
0.35506598040824
-0.00062595518280746
0.35527367768327
-0.00063572235176455
-0.00065832918925784
0.35548918538295
0.33225755641424
-1.4567045153368e-05
0.33226874773641
-4.655014404518e-05
0.33228791152914
-7.9934266806504e-05
0.33231510975674
-0.00011360049673191
0.33235034003173
-0.00014725001756108
0.33239358418039
-0.00018080064922969
0.33244481792301
-0.00021421473974825
0.33250401475342
-0.00024746937582493
0.33257114347976
-0.00028053313294919
0.33264617188818
-0.00031338713638332
0.33272906007221
-0.00034599011326601
0.3328197692668
-0.00037833138725978
0.33291824712675
-0.00041035058171148
0.33302444884057
-0.00044205994692809
0.33313830367168
-0.0004733580790892
0.33325976420425
-0.00050431262795229
0.33338872977057
-0.00053472986236429
0.33352516054609
-0.00056480789696324
0.33366890220985
-0.00059414375674068
0.33381994906729
-0.00062324009193195
0.33397804273447
-0.00065121803292848
0.33414327655248
-0.00067928573721699
0.33431517815711
-0.00070547937936374
0.33449409301808
-0.00073263164216351
0.33467909081723
-0.00075630329526065
0.33487112268764
-0.00078304959214194
0.33506825552332
-0.00080279321983239
0.33527284264917
-0.00083054228140614
0.33548078895026
-0.00084366862618833
-0.00087484155917844
0.33569730134797
0.3136095193368
-1.8028964055495e-05
0.31362052949698
-5.7560264313994e-05
0.31363934983644
-9.8754566468955e-05
0.31366603567696
-0.00014028629820555
0.3137005841504
-0.00018179845291415
0.31374298136639
-0.00022319782832393
0.31379321115646
-0.00026444449407558
0.31385125871868
-0.00030551690358746
0.31391710747313
-0.00034638185413301
0.31399074332494
-0.00038702295626934
0.31407214691804
-0.00042739367560108
0.3141613038923
-0.0004674883320738
0.31425818762501
-0.00050723428603724
0.31436278366078
-0.00054665595552383
0.3144750506296
-0.00058562502164553
0.31459497731694
-0.00062423929005382
0.31472249358048
-0.00066224610133249
0.3148576024992
-0.00069991679190351
0.31500017708161
-0.00073671831578539
0.31515026445122
-0.00077332743871218
0.31530762212281
-0.0008085756818146
0.31547241484316
-0.00084407843514825
0.31564415817182
-0.00087722268545002
0.31582330847531
-0.00091178192314404
0.31600886078382
-0.00094185558087625
0.31620196442824
-0.00097615321351518
0.31640047541343
-0.0010013041814295
0.31660713704862
-0.001037203893104
0.31681735390924
-0.0010538854637111
-0.0010945920614012
0.31703710443571
0.29600811071003
-2.1437780527697e-05
0.29601893175498
-6.8381274113038e-05
0.29603739299916
-0.0001172157756736
0.2960635448347
-0.00016643809945896
0.29609738581694
-0.00021563940168635
0.29613890801638
-0.00026471999530426
0.29618810514308
-0.00031364158924269
0.29624497633821
-0.00036238806827949
0.29630952237581
-0.00041092786226608
0.29638175055807
-0.00045925111020337
0.29646166569826
-0.00050730878841096
0.29654928199006
-0.00055510459764378
0.29664460291119
-0.00060255518181249
0.29674764943897
-0.00064970245899804
0.29685841464587
-0.00069639020499737
0.29697692960771
-0.00074275422925808
0.29710316025433
-0.00078847672587618
0.29723715982014
-0.0008339163363834
0.2973788341871
-0.00087839266174078
0.29752829208823
-0.00092278531938447
0.29768531150421
-0.00096559507744206
0.29785013979952
-0.0010089067104582
0.29802228198724
-0.0010493648530756
0.29820232097991
-0.0010918208959048
0.29838917164946
-0.0011287062302376
0.2985842059916
-0.0011711875355122
0.29878504754845
-0.0012021457177442
0.29899487303609
-0.0012470293604786
0.29920853320026
-0.0012675456080852
-0.0013189151885093
0.29943285634809
0.27939457638764
-2.4779621353211e-05
0.27940516485737
-7.8969715947854e-05
0.27942319355773
-0.0001352444484212
0.27944870921309
-0.00019195372790647
0.27948171328813
-0.00024864345052975
0.27952220550273
-0.00030521218461485
0.27957019130141
-0.00036162736342377
0.27962568590269
-0.00041788264603325
0.27968870990792
-0.00047395184478622
0.27975929493695
-0.00052983611751559
0.27983747327008
-0.00058548710061275
0.2799232914509
-0.00064092275850807
0.28001678717691
-0.00069605088854911
0.28011802157148
-0.00075093683520747
0.28022702707201
-0.00080539568770323
0.28034388274345
-0.00085960988365258
0.28046859621736
-0.00091319018310123
0.28060127764444
-0.0009665977473818
0.28074187186764
-0.0010189868690275
0.28089055719658
-0.0010714706328377
0.28104713810423
-0.0011221759695614
0.2812119540763
-0.0011737226672801
0.28138450469373
-0.0012219154550301
0.28156551120064
-0.0012728273874742
0.28175381033919
-0.0013170053530749
0.28195101276338
-0.0013683899440186
0.28215450551619
-0.0014056384543895
0.28236792355732
-0.0014604473856532
0.28258554738052
-0.0014851694155796
-0.0015484672958332
0.28281509950437
0.26371346177919
-2.8031928975835e-05
0.26372374819017
-8.9256104637407e-05
0.26374122885051
-0.00015272508675978
0.26376594767886
-0.00021667253481302
0.26379791018991
-0.00028060594066819
0.26383712509239
-0.00034442706687225
0.2638836111269
-0.0004081133782493
0.26393740142638
-0.0004716729265853
0.26399853855753
-0.00053508895755051
0.26406708093297
-0.00059837847536077
0.26414309112206
-0.00066149727263383
0.26422665124106
-0.00072448286122086
0.26431783682603
-0.00078723645769663
0.2644167532355
-0.00084985322959527
0.26452347679329
-0.00091211923077954
0.26463813960228
-0.00097427267857833
0.26476079649418
-0.0010358470611761
0.26489162058298
-0.0010974218229012
0.26503060218435
-0.0011579684572014
0.26517799616895
-0.0012188646046808
0.26533364105509
-0.0012778208428807
0.2654979761565
-0.0013380577562019
0.265670504117
-0.0013944434028565
0.2658520925117
-0.0014544157697667
0.26604151007022
-0.0015064228988879
0.26624061340862
-0.0015674932698893
0.26644656525991
-0.0016115902927942
0.26666346330009
-0.0016773454132823
0.26688503382033
-0.0017067399234665
-0.00178332605134
0.26711989258872
0.24891242749326
-3.1166716870318e-05
0.24892232390437
-9.9152500037763e-05
0.24893911251435
-0.00016951368130179
0.24896283534328
-0.00024039534879404
0.24899350253476
-0.00031127311757239
0.24903113250859
-0.00038205702666518
0.24907575829441
-0.0004527391503843
0.24912743218431
-0.0005233468033764
0.24918622024703
-0.00059387700749661
0.24925220948504
-0.00066436770119608
0.2493254949124
-0.00073478268812752
0.24940619666309
-0.00080518460063428
0.2494944310226
-0.00087547080617514
0.24959035078556
-0.00094577298208612
0.24969408002094
-0.0010158484558631
0.2498058079411
-0.0010860005889305
0.24992564165137
-0.0011556807616953
0.25005382218118
-0.0012256023433969
0.25019039195515
-0.0012945382217741
0.25033568800575
-0.0013641606462416
0.25048959166346
-0.0014317244913664
0.25065264758374
-0.0015011136675276
0.25082437370436
-0.0015661695142437
0.25100578750261
-0.0016358295590146
0.25119560742986
-0.001696242816757
0.25139593364815
-0.0017678194789643
0.25160373349236
-0.0018193901273659
0.2518235496946
-0.0018971616061571
0.25204860573146
-0.0019317959509862
-0.0020230834431849
0.25228836313306
0.23494207470278
-3.4153849137222e-05
0.23495148243505
-0.00010856022171282
0.23496742097725
-0.00018545221313202
0.23498992912011
-0.00026290348163974
0.23501902185375
-0.00034036584137597
0.2350547278607
-0.00041776302413896
0.23509709505022
-0.000495106330563
0.23514619546839
-0.00057244721257438
0.23520211944388
-0.00064980097412652
0.23526498338325
-0.00072723163210015
0.23533491594997
-0.00080471524646453
0.23541207662876
-0.00088234527145064
0.23549662439198
-0.00096001856146996
0.23558876145978
-0.0010379100423701
0.23568866259439
-0.0011157495829565
0.23579657686235
-0.0011939148497576
0.23591266801377
-0.0012717719059085
0.23603724846579
-0.0013501827885808
0.23617041920286
-0.0014277089518507
0.23631260317815
-0.0015063446148628
0.23646373421791
-0.0015828555242291
0.23662446500178
-0.0016618444448111
0.23679434380752
-0.0017360483130916
0.23697453646296
-0.0018160222078503
0.23716373689314
-0.0018854432399715
0.23736427623846
-0.0019683588175581
0.23757297389556
-0.0020280877773424
0.23779477773461
-0.002118965438381
0.23802250736888
-0.0021595255783675
-0.0022669198994469
0.23826634383223
0.22175577895851
-3.6963011932233e-05
0.22176460014251
-0.00011738140014275
0.22177953002765
-0.00020038209287478
0.22180060333697
-0.0002839767858116
0.2218278397143
-0.00036760221359592
0.22186127810285
-0.00045120140777591
0.22190098152531
-0.00053480974807215
0.221947041756
-0.00061850743851414
0.22199957336044
-0.00070233257373294
0.22205872196913
-0.00078638023617848
0.22212465015487
-0.00087064342747253
0.22219755672125
-0.00095525183335126
0.22227764414147
-0.0010401059770536
0.22236516444048
-0.0011254303370278
0.22246034496164
-0.0012109300995747
0.22256349557373
-0.0012970654575886
0.22267484020051
-0.0013831165282028
0.22279476412372
-0.001470106707597
0.22292343293353
-0.0015563777571825
0.22306135695987
-0.0016442686370131
0.22320853269482
-0.0017300312546611
0.22336572033111
-0.0018190320768589
0.22353251623707
-0.0019028442144277
0.22371022698173
-0.00199373294816
0.2238975534623
-0.0020727697157581
0.22409703118379
-0.0021678365345004
0.22430539420054
-0.0022364507890779
0.2245278924089
-0.0023414636419639
0.22475741567552
-0.0023890488399971
-0.0025135580595345
0.22500405384068
0.20930953399274
-3.9565052665903e-05
0.20931767986581
-0.00012552727150138
0.20933145337579
-0.00021415560124766
0.20935088544464
-0.00030340885319753
0.20937600037809
-0.00039271714547347
0.20940684692598
-0.00048204795415217
0.20944350247891
-0.00057146529928729
0.20948607764116
-0.00066108259909678
0.20953471061851
-0.00075096554915665
0.20958957521757
-0.00084124483337309
0.20965086698532
-0.00093193519307755
0.20971882248717
-0.0010232073331698
0.20979368743122
-0.0011149709187638
0.20987576207904
-0.0012075049826623
0.20996532725372
-0.0013004952717646
0.2100627521237
-0.0013944903252805
0.21016832375712
-0.001488688159005
0.21028249882066
-0.001584281768772
0.2104055136822
-0.0016793926160136
0.21053796412844
-0.0017767190808121
0.21067992053817
-0.0018719876615907
0.21083224653055
-0.0019713580667214
0.21099460676594
-0.0020652044468879
0.2111684367687
-0.0021675629482958
0.21135248422523
-0.0022568171691969
0.211549455014
-0.002364807320442
0.21175608393584
-0.0024430797075791
0.2119777991757
-0.0025631788787009
0.21220785097274
-0.0026191006335956
-0.0027614088922378
0.21245570180888
0.19756180594616
-4.1934469962886e-05
0.19756919915841
-0.00013292048530189
0.19758168706615
-0.000226643510564
0.19759929697301
-0.00032101876170434
0.19762205741693
-0.00041547759081391
0.19765002609155
-0.00051001663015286
0.1976832935666
-0.00060473277538567
0.19772198759847
-0.00069977663194094
0.19776626804459
-0.00079524599585426
0.19781633448251
-0.00089131127182679
0.19787241370101
-0.00098801441168479
0.19793477744908
-0.0010855710813359
0.19800371277651
-0.0011839062458665
0.19807956478217
-0.0012833569880572
0.19816266747449
-0.0013835979633996
0.19825344509621
-0.0014852679464526
0.19835225046511
-0.0015874935269662
0.19845960605019
-0.0016916373531052
0.19857582621482
-0.0017956127795139
0.19870158480939
-0.001902477674512
0.19883703962914
-0.0020074424800644
0.198983147621
-0.0021174660575893
0.19913966528047
-0.0022217221049414
0.19930813893168
-0.0023360365983792
0.19948740773234
-0.0024360859682304
0.19968030523134
-0.0025577048180547
0.19988365759382
-0.0026464320680913
0.20010298134913
-0.0027825026321893
0.20033184176125
-0.0028479610434177
-0.0030089469080146
0.20057937977928
0.18647339335271
-4.4050456081404e-05
0.18647997154051
-0.00013949867697262
0.18649106942134
-0.00023774139525519
0.18650671045218
-0.00033665979637891
0.1865269268282
-0.00043569397037604
0.18655178399593
-0.00053487380130921
0.18658138384747
-0.00063433262992475
0.18661586900305
-0.00073426179037237
0.18665541813177
-0.00083479512693159
0.18670025351509
-0.0009361466573778
0.18675062937994
-0.0010383902782383
0.18680684904008
-0.0011417907431025
0.18686923734979
-0.0012462945566905
0.18693818047933
-0.0013523001186963
0.18701406190618
-0.0014594793908781
0.18709735676824
-0.0015685628092353
0.18718848230759
-0.0016786190666071
0.18728802071101
-0.0017911757570113
0.1873963691587
-0.0019039612272864
0.18751426796131
-0.0020203764774924
0.18764197897065
-0.0021351534893805
0.18778053161764
-0.0022560187048776
0.18792980577066
-0.0023709962578314
0.18809142886522
-0.0024976596931358
0.18826438060905
-0.0026090377117371
0.18845157286341
-0.0027448970723259
0.18865001285718
-0.0028448720611321
0.18886523603586
-0.0029977258101828
0.18909105194788
-0.0030737769541225
-0.0032545136117642
0.18933661865292
0.17600729600221
-4.5897703305015e-05
0.17601301365525
-0.00014521633553123
0.17602264571014
-0.00024737345559526
0.17603621145454
-0.00035022554619029
0.17605374564631
-0.00045322816720958
0.17607531982879
-0.00055644798870723
0.17610104492255
-0.00066005772815515
0.17613107552384
-0.00076429239594289
0.17616560556625
-0.00086932517310631
0.17620487611283
-0.00097541720754413
0.17624916420193
-0.0010826783703658
0.17629880009931
-0.0011914266433722
0.17635414060837
-0.0013016350680926
0.17641560859816
-0.0014137681107788
0.17648363084401
-0.0015275016385129
0.17655872950539
-0.0016436614724732
0.17664137914843
-0.0017612687110713
0.17673221941281
-0.0018820160230198
0.17683172444867
-0.0020034662643961
0.17694069805437
-0.002129350084769
0.17705950835278
-0.0022539637890121
0.17718924428742
-0.0023857546411171
0.17732993438505
-0.0025116863566765
0.17748324911611
-0.0026509744257711
0.17764837043231
-0.0027741590289963
0.17782822135351
-0.0029247479947796
0.17802008762106
-0.0030367383292352
0.17822945194999
-0.0032070901395677
0.17845037302197
-0.0032946980257235
-0.0034962508116438
0.17869211022232
0.16612859102122
-4.7466750484376e-05
0.16613342114475
-0.00015004646554598
0.16614154244828
-0.00025549476554468
0.16615296951732
-0.00036165262160891
0.16616773860614
-0.00046799726209837
0.16618592544841
-0.00057463483691556
0.166207647324
-0.00068177960929011
0.16623306741847
-0.00078971249580681
0.16626239090861
-0.00089864866815324
0.16629587294794
-0.001008899251635
0.16633380816341
-0.0011206135900648
0.1663765479704
-0.0012341664544523
0.16642447491394
-0.0013495620151778
0.16647804188593
-0.0014673350862594
0.16653771187001
-0.0015871716255773
0.16660404805937
-0.0017099976649028
0.16667757439165
-0.0018347950460178
0.16675898328537
-0.001963424919633
0.16684881632727
-0.0020932993088894
0.1669479404888
-0.0022284742492716
0.1670568194464
-0.0023628427493306
0.16717660379319
-0.0025055389910763
0.16730747001856
-0.0026425525849341
0.16745111510477
-0.002794619515267
0.16760696726889
-0.0029300111959439
0.16777788650998
-0.003095667238853
0.1679615553928
-0.0032204072142622
0.1681633018547
-0.0034088366033887
0.16837748505173
-0.003508881223544
-0.0037322271401388
0.16861346137971
0.15680431599979
-4.8754066623337e-05
0.15680824978913
-0.0001539802617609
0.15681484626274
-0.00026209124602925
0.15682411480488
-0.0003709211706744
0.15683609175162
-0.00047997421558799
0.15685085490345
-0.00058939799548387
0.156868525109
-0.00069944982133244
0.15688927051289
-0.00081045790617312
0.15691330322932
-0.00092268139072623
0.15694088733044
-0.001036483358852
0.15697232934617
-0.0011520556114558
0.15700799526994
-0.0012698323838085
0.15704828662914
-0.0013898533794842
0.15709367845998
-0.0015127269221654
0.15714466252753
-0.0016381556977558
0.1572018337316
-0.001767168873688
0.15726575862922
-0.0018987199480128
0.15733717224207
-0.002034838537138
0.15741667792167
-0.0021728049929429
0.15750519454116
-0.0023169908736759
0.15760327889133
-0.0024609271042916
0.15771213101702
-0.0026143911221304
0.15783208202183
-0.0027625035949605
0.15796483297568
-0.002927370474827
0.15811009875473
-0.0030752769803255
0.15827060078069
-0.0032561692702749
0.15844453985262
-0.0033943462907738
0.15863694436514
-0.0036012411199686
0.1588425771412
-0.0037145140021492
-0.0039605173590151
0.15907086735817
0.14800335862534
-4.9761768080781e-05
0.14800640499931
-0.00015702664228434
0.14801149205611
-0.00026717830950922
0.14801862347736
-0.00037805259887049
0.14802783453814
-0.00048918528340312
0.1480392028905
-0.00060076635516497
0.14805285002967
-0.00071309696785236
0.14806894531791
-0.00082655320202178
0.14808770353123
-0.00094143961158174
0.14810939228714
-0.0010581721224541
0.14813432421185
-0.0011769875436197
0.14816287278094
-0.0012983809604038
0.14819545146113
-0.0014224320668218
0.14823254867649
-0.0015498241446948
0.14827467717996
-0.0016802842080265
0.14832245295312
-0.0018149446537817
0.14837647757464
-0.0019527445762165
0.14843751552801
-0.0020958764975284
0.14850622799809
-0.0022415174699636
0.14858356669448
-0.002394329577573
0.14867018670069
-0.0025475471180733
0.14876730577949
-0.0027115102092138
0.14887543485516
-0.0028706326789788
0.14899622960487
-0.0030481652335211
0.14912974839365
-0.0032087957778536
0.14927850187247
-0.0034049227579664
0.14944131713892
-0.0035571615651814
0.1496227516823
-0.0037826756704381
0.14981813156324
-0.0039098938881667
-0.0041792584246178
0.15003687262485
0.1396963525558
-5.0497068734307e-05
0.13969853612677
-0.00015921021816802
0.13970215581943
-0.00027079800731135
0.13970720922744
-0.00038310601265156
0.13971372930587
-0.00049570536817258
0.13972179138764
-0.0006088284440167
0.13973151493725
-0.00072282052504262
0.13974306670337
-0.00083810497639312
0.13975665995305
-0.00095503286982762
0.13977256042311
-0.0010740726015222
0.13979108148415
-0.0011955086137172
0.13981259675221
-0.0013198962377398
0.13983752486244
-0.0014473601861321
0.13986635805407
-0.0015786573455187
0.13989962243663
-0.0017135485995232
0.13993794319938
-0.0018532654256382
0.13998194935506
-0.0019967507408637
0.14003241987108
-0.0021463470229104
0.1400900682455
-0.0022991658538197
0.1401558603497
-0.0024601216918969
0.14023054912044
-0.0026222358992363
0.14031534541305
-0.0027963065131426
0.14041094348002
-0.002966230757619
0.14051892498645
-0.0031561467524679
0.14063970410384
-0.003329574907772
0.14077554996284
-0.0035407686297295
0.14092601630017
-0.0037076279143625
0.14109500574398
-0.003951665124953
0.1412786671592
-0.0040935553115057
-0.00438665251593
0.14148606124402
0.13185557881264
-5.0971152945305e-05
0.13185693755673
-0.00016056896281279
0.13185915481761
-0.00027301526886833
0.13186222177746
-0.00038617297422268
0.13186616767053
-0.00049965126414941
0.13187106364559
-0.00061372442334983
0.1318770250562
-0.00072878194106584
0.13188421235668
-0.00084529228346196
0.13189283329544
-0.00096365381596003
0.13190314608786
-0.0010843854021065
0.1319154602165
-0.0012078227508698
0.13193014188238
-0.0013345779125207
0.13194760933789
-0.0014648276505505
0.1319683480749
-0.0015993960916255
0.13199289140222
-0.0017380919357973
0.13202185997241
-0.0018822340050075
0.13205590371281
-0.0020307944904188
0.13209579986859
-0.0021862431883183
0.13214230561292
-0.0023456716080214
0.1321963875258
-0.0025142036154951
0.13225887885085
-0.0026847272355762
0.13233098975523
-0.0028684174299647
0.13241355119346
-0.0030487922090254
0.1325081146206
-0.003250710193964
0.13261534349877
-0.0034368038007443
0.13273734059121
-0.0036627657374746
0.13287432039677
-0.0038446077345389
0.13302953505766
-0.0041068797991763
0.13320048066541
-0.0042645009296248
-0.0045809896588311
0.13339481780008
0.12445487266069
-5.1197468264088e-05
0.1244554542148
-0.00016115050837686
0.1244563524975
-0.00027391354247934
0.12445755120822
-0.00038737167706741
0.12445907374197
-0.00050117379180259
0.12446098612298
-0.00061563680028874
0.12446339813522
-0.00073119395102527
0.12446646022857
-0.00084835437620901
0.12447037136675
-0.00096756495476956
0.1244753771442
-0.0010893911812715
0.12448177919074
-0.0012142247997242
0.12448992804666
-0.001342726771298
0.12450023769906
-0.001475137305947
0.12451317491114
-0.0016123333069694
0.12452927755296
-0.0017541945808524
0.12454914411953
-0.0019021005750894
0.12457344454179
-0.0020550949162905
0.12460293155432
-0.0022157302050353
0.1246384032039
-0.0023811432622487
0.12468080731419
-0.00255660773149
0.12473103561765
-0.0027349555456726
0.12479031508073
-0.0029276969011996
0.12485953013451
-0.0031180072722057
0.12494034422375
-0.003331524294292
0.12503340140543
-0.0035298609946252
0.12514101295144
-0.003770377296781
0.12526332249089
-0.0039669172871767
0.12540364033952
-0.0042471976600297
0.1255610450686
-0.0044219056680594
-0.0047610301453616
0.12574108554819
0.11746953900098
-5.1192671557285e-05
0.11746939590505
-0.00016100738835703
0.11746907224645
-0.00027358985835132
0.11746854069836
-0.00038684010456442
0.11746781582099
-0.00050044889215885
0.11746695996774
-0.00061478092722167
0.11746607596939
-0.00073030993512066
0.11746529914951
-0.00084757754076196
0.11746481754676
-0.00096708333798474
0.117464860975
-0.0010894345966694
0.11746571969448
-0.001215083507128
0.11746772077124
-0.0013447278365245
0.11747127085925
-0.0014786873827005
0.11747680536761
-0.0016178678043132
0.11748486764869
-0.0017622568510333
0.11749601116658
-0.0019132440823641
0.11751093691627
-0.0020700206556768
0.11753033162441
-0.0022351249035189
0.11755506428563
-0.0024058759146255
0.1175859945968
-0.0025875380351089
0.11762412197109
-0.0027730829139057
0.11767060630224
-0.0029741812282455
0.11772639689371
-0.003173797861603
0.11779332862589
-0.0033984560267064
0.11787175287723
-0.003608285248367
0.11796501725564
-0.0038636416796074
0.11807145937866
-0.0040733594158066
0.11819722489281
-0.004372963179717
0.11833778085671
-0.0045624616356974
-0.0049282027733741
0.11850495348351
0.11087627521723
-5.0982953192579e-05
0.11087547197892
-0.00016020410537661
0.11087403561258
-0.00027215344517533
0.11087192567875
-0.00038473012498981
0.11086914862254
-0.00049767179247348
0.11086576380383
-0.00061139606774494
0.1108618643224
-0.00072641041526576
0.11085756554919
-0.0008432787312265
0.11085304598547
-0.00096256373936663
0.11084851763019
-0.0010849062076778
0.11084425451985
-0.0012108203636784
0.11084055587924
-0.0013410291633847
0.11083781706305
-0.0014759485341108
0.11083643378102
-0.0016164844902237
0.1108369536212
-0.0017627766592072
0.11083986505633
-0.0019161554859625
0.11084591513265
-0.0020760707008033
0.11085567146614
-0.002244881206833
0.11087014015914
-0.0024203445784857
0.11088995177011
-0.002607349618872
0.11091640962232
-0.0027995407409015
0.11095026730037
-0.0030080388839474
0.1109929744865
-0.0032165050281099
0.11104588170104
-0.0034513632251182
0.11110967820547
-0.0036720817399175
0.11118838959195
-0.0039423530570671
0.11127837321822
-0.0041633430358966
0.11139163536642
-0.0044862253238802
0.11151162315919
-0.0046824494242096
-0.005084152277592
0.11166757266877
0.10465308647462
-5.0603401962747e-05
0.1046517196191
-0.00015883718384222
0.10464928998685
-0.00026972374559366
0.10464575510115
-0.0003811951732273
0.10464114008946
-0.00049305671708448
0.10463549458544
-0.00060575050246586
0.1046288698344
-0.00071978560521166
0.1046213782142
-0.00083578705364362
0.10461319529775
-0.00095438076678674
0.10460451034292
-0.0010762211974082
0.10459557546254
-0.0012018854283885
0.10458666264464
-0.00133211629073
0.10457814895625
-0.0014674347911943
0.10457039071739
-0.0016087261968834
0.10456392910564
-0.0017563149932949
0.10455918597436
-0.0019114123008024
0.10455694805639
-0.0020738327297721
0.10455764077406
-0.0022455738725203
0.10456244519486
-0.0024251489491978
0.1045716378936
-0.0026165422698982
0.10458706626589
-0.0028149690687367
0.10460856395761
-0.0030295365347979
0.10463903812255
-0.0032469791563909
0.10467754324301
-0.0034898683132917
0.10472814644867
-0.0037226849186929
0.10478990653031
-0.0040041131174156
0.10486582048223
-0.004239256972391
0.1049626607573
-0.004583065587801
0.10507022302115
-0.004790011679924
-0.0052252960836453
0.10521136683541
0.098779160893522
-5.004595362841e-05
0.098777347826044
-0.00015702403673861
0.098774031758757
-0.00026640759823958
0.098769204830953
-0.00037636816682944
0.098762944905413
-0.00048679671488153
0.09875537892494
-0.00059818444736438
0.098746310518111
-0.00071071712518591
0.098735970174018
-0.00082544663744194
0.098724512977262
-0.00094292349829045
0.098712095927363
-0.0010638040760036
0.098698948259829
-0.0011887376890972
0.098685320099333
-0.0013184880583977
0.098671557831416
-0.001453672451069
0.098657984631571
-0.0015951529248462
0.098645111877396
-0.0017434421668
0.098633317845698
-0.001899618197308
0.098623376659596
-0.0020638914725433
0.098615627505462
-0.0022378246490526
0.098611322685318
-0.0024208440620722
0.098610492704895
-0.0026157122263233
0.098615382111749
-0.0028198584167645
0.09862497732727
-0.0030391316969484
0.098643751044269
-0.0032657528254789
0.098667791657654
-0.0035139088854539
0.098706651896222
-0.0037615451234019
0.098749247053314
-0.0040467082497751
0.098815008823425
-0.0043050187263929
0.098881445845818
-0.0046495026013904
0.098975720101078
-0.0048842859309843
0.099144128007626
-0.0053937039855337
0.39414596783503
0.004667531545486
0.38963723946983
0.004508728383426
0.38529178521457
0.0043454542735085
0.38111395618036
0.0041778290525132
0.37710795899661
0.0040059972022959
0.37327785485979
0.0038301041554875
0.36962755130066
0.0036503035780259
0.36616079285451
0.0034667584650621
0.36288115422929
0.0032796386442458
0.35979203563811
0.0030891186100426
0.35689665957205
0.0028953760848548
0.35419806736879
0.0026985922217101
0.35169911564838
0.0024989517385994
0.34940247220515
0.0022966434608648
0.34731061221934
0.0020918600029923
0.34542581415805
0.0018847980777009
0.34375015643769
0.0016756577361393
0.34228551379462
0.0014646426578774
0.34103355432446
0.0012519594841566
0.33999573599243
0.0010378183448836
0.3391733038029
0.0008224322014374
0.33856728507936
0.00060601873416291
0.33817848294398
0.00038880214494372
0.33800744770462
0.00017103524757377
0.33805444707783
-4.6999366107142e-05
0.338319958247
-0.00026551116344307
0.33880371654086
-0.00048375828922171
0.33950540598357
-0.0007016894394003
0.34042449405748
-0.00091908807158212
0.34156021862135
-0.0011357245627625
0.34291158798452
-0.00135136936289