/*--------------------------------*- C++ -*----------------------------------*\
| =========                 |                                                 |
| \\      /  F ield         | OpenFOAM: The Open Source CFD Toolbox           |
|  \\    /   O peration     | Version:  v1912                                 |
|   \\  /    A nd           | Website:  www.openfoam.com                      |
|    \\/     M anipulation  |                                                 |
\*---------------------------------------------------------------------------*/
FoamFile
{
    version     2.0;
    format      ascii;
    class       surfaceScalarField;
    location    "0";
    object      phi;
}
// * * * * * * * * * * * * * * * * * * * * * * * * * * * * * * * * * * * * * //

dimensions      [0 3 -1 0 0 0 0];
oriented        oriented;


internalField   nonuniform List<scalar> 
43645
(
0.39512222992691
-3.3568819624255e-06
0.39513225653703
-1.0026632559109e-05
0.39514904899148
-1.6792478703648e-05
0.39517267528249
-2.3626316088669e-05
0.3952031190523
-3.0443795044453e-05
0.39524043289836
-3.731387112094e-05
0.39528452019988
-4.4087326215579e-05
0.39533544871121
-5.0928535578272e-05
0.39539316734605
-5.7718658609275e-05
0.39545767619766
-6.4508874913156e-05
0.39552889622957
-7.1220054705282e-05
0.39560679572948
-7.7899522240161e-05
0.39569120322409
-8.4407516450102e-05
0.39578214699923
-9.0943796540977e-05
0.39587936009419
-9.721311589306e-05
0.39598288071625
-0.00010352064258685
0.39609228457815
-0.00010940388201692
0.3962076379399
-0.00011535338150655
0.39632834170072
-0.00012070378021746
0.3964546441161
-0.00012630243449595
0.39658563468374
-0.00013099058646541
0.3967217179524
-0.00013608328726793
0.39686174347133
-0.00014002553730818
0.39700631535044
-0.00014457189734786
0.39715390603344
-0.00014759070107446
0.39730565362104
-0.00015174760559732
0.39745927041309
-0.00015361680991885
0.39761667805931
-0.00015740766383153
0.39777461852034
-0.00015794047819322
-0.0001616360334241
0.39793625453638
0.37294572163317
-6.5238087782264e-06
0.37295532124603
-1.9626282389939e-05
0.37297137759705
-3.28488673793e-05
0.37299401523995
-4.6263996646256e-05
0.37302320706318
-5.9635655522043e-05
0.37305896078617
-7.3067630803465e-05
0.37310134117952
-8.6467755583892e-05
0.37315033191506
-9.9919306489775e-05
0.37320587917838
-0.0001132659565948
0.37326805548763
-0.00012668521816975
0.37333674062044
-0.00013990522081932
0.37341200675034
-0.00015316568478832
0.37349364788341
-0.00016604868148825
0.37358170822327
-0.00017900416775504
0.3736758983833
-0.00019140330662354
0.3737762782043
-0.00020390049374184
0.37388246141946
-0.00021558712676763
0.37399454303589
-0.00022743502705665
0.37411196317391
-0.00023812394687095
0.37423489590908
-0.00024923519793894
0.37436253678435
-0.00025863148963033
0.37449524706864
-0.00026879359919183
0.37463188964315
-0.00027666813915566
0.37477320583404
-0.00028588811542741
0.37491748625181
-0.00029187114581794
0.37506597493185
-0.00030023631253137
0.37521631550697
-0.00030395741179532
0.375370574433
-0.00031166661623126
0.37552537342355
-0.00031273949412763
-0.000320230925349
0.37568396828943
0.35201401204531
-9.6383662463987e-06
0.35202336197946
-2.8976255506672e-05
0.35203905578224
-4.8542709344169e-05
0.35206111343236
-6.8321685610088e-05
0.35208963060355
-8.815286490775e-05
0.35212464085484
-0.0001080779195738
0.35216616437318
-0.00012799131061379
0.35221424791968
-0.00014800288892099
0.35226881740071
-0.00016783547274478
0.35232995177515
-0.0001878196269718
0.35239758144172
-0.00020753492094585
0.35247175314677
-0.0002273374226677
0.35255234378651
-0.00024663935325058
0.35263937557039
-0.00026603598298459
0.35273262268929
-0.00028465045613982
0.35283219825882
-0.0003034760932872
0.35293763174285
-0.00032102064017202
0.3530491349249
-0.0003389382380025
0.35316610201134
-0.00035509106167698
0.35328878602631
-0.00037191924093074
0.35341631596014
-0.00038616145106398
0.35354915630849
-0.00040163397493514
0.35368605181009
-0.00041356366785912
0.35382783435069
-0.00042767068302127
0.35397271387024
-0.0004367506921917
0.35412211743908
-0.00044963990819913
0.35427344246737
-0.00045528246682057
0.35442907208776
-0.00046729626306211
0.35458512656194
-0.00046879399373522
-0.00048053671984584
0.35474543233012
0.33225708787
-1.2682309934938e-05
0.33226624705633
-3.8135477260973e-05
0.33228170126347
-6.399695212522e-05
0.33230345148672
-9.0071944227619e-05
0.33233157211349
-0.00011627352647773
0.33236615130531
-0.0001426571455366
0.33240716641766
-0.00016900645637355
0.33245476848217
-0.00019560498615025
0.33250889093668
-0.00022195795919926
0.33256968783339
-0.00024861655491561
0.33263701156516
-0.000274858683182
0.33271104256291
-0.00030136845017438
0.33279163669444
-0.00032723351377366
0.33287888431545
-0.00035328363234457
0.33297251906501
-0.00037828523334068
0.33307271958063
-0.00040367663599573
0.33317903027027
-0.00042733135628471
0.33329171903485
-0.00045162702861814
0.33341011516814
-0.00047348722051062
0.33353454265262
-0.00049634675063828
0.33366408234523
-0.00051570116853453
0.33379938550492
-0.00053693715930546
0.33393902013785
-0.00055319832521178
0.33408398791452
-0.00057263848404624
0.3342322862448
-0.0005850490466865
0.33438563308343
-0.00060298677107601
0.33454099077153
-0.0006106401791101
0.33470126225696
-0.00062756777242913
0.33486189520078
-0.00062942696058242
-0.00064623825731716
0.33502759671429
0.31360905073434
-1.5675695627752e-05
0.3136181051479
-4.7189923687897e-05
0.31363329655708
-7.91883942824e-05
0.31365476650823
-0.00011154192802011
0.31368256957269
-0.00014407662296113
0.31371681193592
-0.0001768995401312
0.31375753471459
-0.00020972926565606
0.31380487962381
-0.00024294992525709
0.31385886590712
-0.00027594427160657
0.31391966032877
-0.00030941100493423
0.31398717323411
-0.00034237161609555
0.31406158814776
-0.00037578339067351
0.31414273619547
-0.00040838158756878
0.31423083361811
-0.00044138108041646
0.31432557706734
-0.00047302870730256
0.3144272126193
-0.00050531221213777
0.31453529736743
-0.00053541612802021
0.31465015540242
-0.00056648508678614
0.31477109301736
-0.00059442485818147
0.31489855716925
-0.00062381092498267
0.31503151401827
-0.00064865803969194
0.31517075637307
-0.00067617953612315
0.31531468763557
-0.00069712960954659
0.31546463943841
-0.00072259030872716
0.31561811843101
-0.0007385280610545
0.31577742911458
-0.00076229747655644
0.31593891160479
-0.00077212269125527
0.31610615472854
-0.00079481091797899
0.31627374191341
-0.00079701416651671
-0.00081981827921234
0.31644732191316
0.2960076340971
-1.8607962310456e-05
0.2960165494246
-5.6105282144504e-05
0.29603147648584
-9.4115486550162e-05
0.29605264397463
-0.00013270944748896
0.29608011799107
-0.00017155066951187
0.29611402541678
-0.00021080699532592
0.29615449015097
-0.00025019402861534
0.29620161921197
-0.00029007901435798
0.29625553186923
-0.00032985695621453
0.29631633270649
-0.00037021186885555
0.29638404945235
-0.00041008838784172
0.29645885958198
-0.00045059354550421
0.29654068311372
-0.00049020514376766
0.29662979850942
-0.00053049649994819
0.29672591370474
-0.00056914392578139
0.29682932682728
-0.00060872535730116
0.29693954918932
-0.00064563851211648
0.29705703960396
-0.00068397552307872
0.29718102428757
-0.00071840956300104
0.29731217292611
-0.00075495958446442
0.29744925766081
-0.00078574279502922
0.29759327844664
-0.00082020034246526
0.29774239152822
-0.00084624271145553
0.29789832074449
-0.00087851954533643
0.29805817950288
-0.00089838683971023
0.29822476670962
-0.00092888470369676
0.29839372079336
-0.00094107679542474
0.2985693842516
-0.00097047439652611
0.29874540966476
-0.00097303959929231
-0.0010030289084053
0.29892862027318
0.27939409576634
-2.1469235961452e-05
0.27940281655938
-6.4826103721469e-05
0.27941748848738
-0.00010878744308867
0.27943830772479
-0.00015352871308052
0.27946530605723
-0.00019854902957429
0.27949875982022
-0.00024426078534362
0.27953876496998
-0.00029019920470391
0.27958553505923
-0.00033684912930134
0.27963914287139
-0.0003834647933232
0.27969983176268
-0.00043090078444125
0.27976763463727
-0.00047789128597067
0.27984276615203
-0.00052572508315328
0.27992515330409
-0.00057259231798885
0.28001516661099
-0.0006205098284147
0.28011247795058
-0.00066645528629885
0.28021748955864
-0.00071373698578298
0.28032979875992
-0.00075794773327851
0.28044991455441
-0.00080409133708541
0.28057694423289
-0.00084543926057971
0.28071179148237
-0.00088980685282607
0.28085306325276
-0.00092701458402775
0.28100208275755
-0.00096921986577676
0.28115668597824
-0.0010008459505401
0.28131895997328
-0.0010407935588165
0.28148561567533
-0.0010650425601892
0.28165991132498
-0.0011031803719477
0.28183698475909
-0.0011181502482021
0.28202199027619
-0.0011554799322537
0.28220742583636
-0.001158475177507
-0.0011970193275968
0.28240141623627
0.26371297642429
-2.4236235747218e-05
0.2637214478268
-7.3297532844842e-05
0.26373570453293
-0.00012304417582621
0.26375597988992
-0.00017380409635489
0.26378238427828
-0.00022495344371261
0.26381518632959
-0.00027706286190078
0.26385449669913
-0.00032950959886445
0.26390061863979
-0.00038297109400584
0.2639535895084
-0.00043643568530894
0.26401377722259
-0.00049108852140153
0.2640812124661
-0.000545326551557
0.26415622893381
-0.0006007415723396
0.26423876772684
-0.00065513113182035
0.26432917039614
-0.00071091251795595
0.26442726401536
-0.00076454892514519
0.26453351944462
-0.00081999243421241
0.26464747639561
-0.00087190470290438
0.26476973302774
-0.00092634798750517
0.26489947578996
-0.00097518204069006
0.26503767221364
-0.001028003294172
0.26518288751094
-0.001072229898715
0.26533658733155
-0.001122919703691
0.2654964885964
-0.001160747232532
0.26566485628974
-0.0012091612693345
0.26583837765166
-0.0012385639392427
0.26602032887508
-0.0012851316126354
0.26620578282628
-0.0013036042167117
0.26639992753766
-0.0013496246608716
0.26659545605959
-0.0013540037161156
-0.0014024115483261
0.26680084826239
0.2489119202396
-2.6863808731094e-05
0.24892003291302
-8.1410230649785e-05
0.24893377519244
-0.00013678647961084
0.24895332499308
-0.00019335392107666
0.24897889840691
-0.00025052688114451
0.24901076393084
-0.00030892840895485
0.24904905392176
-0.00036779961234366
0.24909411264947
-0.000428029843756
0.24914605809307
-0.00048838115033813
0.24920527270952
-0.00055030315873261
0.2492718402444
-0.00061189410668121
0.24934615392996
-0.00067505527759322
0.24942821794703
-0.00073719516795815
0.24951840014435
-0.00080109473383842
0.24961661746935
-0.00086276626814213
0.24972336210583
-0.00092673708826892
0.24983823660752
-0.0009867792216877
0.24996195310249
-0.0010500644992528
0.25009373089929
-0.0011069598539011
0.25023450263541
-0.0011687750465041
0.25038296327643
-0.0012206905556961
0.25054055259238
-0.0012805090355438
0.25070520556606
-0.0013254002219693
0.25087907367408
-0.0013830293931595
0.25105895167311
-0.0014184419540432
0.25124808778726
-0.0014742677426949
0.25144176351516
-0.0014972799605722
0.25164485040751
-0.0015527115691129
0.25185052769055
-0.0015596810145626
-0.0016188975178028
0.25206701364335
0.23494160298655
-2.9379256922812e-05
0.23494931358809
-8.9120854780193e-05
0.23496238670779
-0.00014985962186999
0.23498101647607
-0.00021198371167607
0.23500544419521
-0.00027495462219823
0.23503598939567
-0.00033947363092527
0.23507286772048
-0.00040467795816626
0.2351163998411
-0.00047156198494984
0.23516686344816
-0.00053884477743407
0.23522457136444
-0.00060801109456841
0.23528967678792
-0.00067699954913706
0.23536259944604
-0.00074797795422094
0.2354433980667
-0.00081799380655176
0.23553259361366
-0.00089029029828451
0.23563008232056
-0.00096025499200232
0.23573644869211
-0.001033103476392
0.23585129277882
-0.0011016233245275
0.23597545696043
-0.001174228696689
0.23610817431148
-0.0012396772204351
0.23625052359674
-0.001311124347054
0.23640119329591
-0.0013713602699063
0.2365617084562
-0.0014410242107965
0.23673006139914
-0.0014937531797157
0.23690848778129
-0.0015614557901378
0.23709374876714
-0.0016037029546525
0.23728931667089
-0.0016698356613178
0.2374903008619
-0.0016982641664571
0.23770171653307
-0.0017641272550615
0.23791671971404
-0.0017746842098328
-0.001846166597043
0.23814398877774
0.22175530211042
-3.1711597204214e-05
0.22176247339107
-9.6292156164871e-05
0.2217746965008
-0.00016208275232945
0.2217922612841
-0.00022954851549299
0.22181538051143
-0.00029807386970474
0.22184432481468
-0.0003684179540023
0.22187941094348
-0.00043976410638103
0.22192096642199
-0.00051311748248691
0.22196931643411
-0.00058719480811498
0.22202484107351
-0.00066353575212154
0.22208775407209
-0.00073991256536733
0.22215853988667
-0.00081876378602504
0.22223729854737
-0.00089675248397392
0.22232459044326
-0.00097758221050279
0.22242034446535
-0.0010560090299533
0.22252528349229
-0.0011380425188501
0.22263904406789
-0.0012153839152447
0.22276252476308
-0.0012977094067219
0.22289500409029
-0.0013721565621767
0.22303768019863
-0.0014538004697409
0.22318932397822
-0.0015230040636245
0.22335155976131
-0.0016032600079388
0.2235223113582
-0.0016645047905063
0.2237040205102
-0.0017431649560613
0.22389340899337
-0.0017930914516772
0.22409414537471
-0.0018705720566048
0.22430122673292
-0.001905345538606
0.22451996813798
-0.0019828686739516
0.22474324695746
-0.0019979630427102
-0.0020833527476113
0.22498043309341
0.20930906590463
-3.3845570191449e-05
0.20931570865342
-0.00010293492415332
0.20932697127338
-0.00017334539150176
0.20934317438238
-0.00024575164355252
0.20936462505997
-0.00031952456605447
0.20939166937163
-0.00039546228416544
0.2094245297012
-0.00047262445408534
0.2094636879708
-0.00055227576991819
0.20950941018156
-0.00063291703630584
0.20956214955531
-0.00071627514296332
0.2096221897667
-0.00079995279340793
0.20969008264936
-0.00088665668497702
0.20976596199576
-0.00097263184622429
0.2098504316197
-0.0010620518499454
0.20994346854183
-0.0011490459671729
0.21004583736135
-0.0012404113531532
0.21015731628079
-0.0013268628490977
0.21027884529433
-0.0014192384344316
0.21040981595552
-0.0015031272372404
0.21055148623547
-0.0015954707633866
0.21070262369388
-0.0016741415355041
0.21086506457985
-0.0017657009072947
0.21103668594775
-0.0018361261716507
0.21122012608071
-0.0019266051022508
0.21141215403519
-0.0019851194193041
0.21161649816196
-0.0020749161965784
0.21182821357614
-0.0021170609659664
0.21205287987913
-0.0022075349899864
0.21228312916572
-0.0022282123419217
-0.0023291636691189
0.21252894007341
0.19756135048487
-3.57595420329e-05
0.19756731726468
-0.00010890172174948
0.19757754496959
-0.00018357311424339
0.19759230246241
-0.00026050915407853
0.19761183561617
-0.00033905773729054
0.19763657720932
-0.00042020389458243
0.19766688200855
-0.00050292927028558
0.19770319958562
-0.00058859336371199
0.19774579952634
-0.00067551699341379
0.19779520316272
-0.00076567879543486
0.19785171830483
-0.00085646795125365
0.19791597379734
-0.00095091219291611
0.19798808438906
-0.0010447424529844
0.19806876535413
-0.0011427328297663
0.19815807431228
-0.0012383549397028
0.19825686602479
-0.0013392030797707
0.19836493156233
-0.0014349284004209
0.19848324117259
-0.0015375480582462
0.19861125584054
-0.0016311419184643
0.19875040907302
-0.0017346240089786
0.19889952243688
-0.001823254912266
0.19906054947748
-0.0019267279606967
0.19923144201482
-0.0020070187216489
0.19941496157618
-0.0021101246762447
0.19960788777278
-0.0021780456284546
0.19981414680189
-0.0022811752382719
0.20002878308995
-0.0023316972665795
0.2002575680831
-0.0024363199955453
0.20049319946884
-0.0024638437396818
-0.0025819591554257
0.20074599494194
0.1864729446226
-3.742681044988e-05
0.18647814420773
-0.00011410132350538
0.1864871621808
-0.00019259110400308
0.18650027912684
-0.00027362611673049
0.18651778080809
-0.00035655943497602
0.18654008524569
-0.0004425083484406
0.18656751540933
-0.00053035944996047
0.18660057029193
-0.00062164826214085
0.18663960457155
-0.00071455128857114
0.18668519038133
-0.00081126462052723
0.18673762284516
-0.00090890043007713
0.18679750455746
-0.0010107939199552
0.18686509156686
-0.0011123294767881
0.18694115252515
-0.0012187938022112
0.18702578514924
-0.0013229875776159
0.18711985174321
-0.0014332696873288
0.18722326543635
-0.001538342106849
0.18733715108057
-0.001651433715536
0.18746093070346
-0.0017549215541581
0.18759612020053
-0.0018698135186982
0.18774164197142
-0.0019687766955811
0.1878995592924
-0.0020846452939892
0.18806797030344
-0.0021754297448474
0.18824971077941
-0.0022918651643262
0.18844168490532
-0.0023700197663872
0.18864795464585
-0.0024874449908281
0.18886367927365
-0.0025474219063686
0.18909465164991
-0.0026672923836491
0.18933372743901
-0.0027029195402757
-0.0028398015548636
0.18959156982579
0.17600685517242
-3.8833237698643e-05
0.17601133579406
-0.00011858196077759
0.17601904378922
-0.00020029911488463
0.17603038882138
-0.00028497116456466
0.17604565703781
-0.00037182766693801
0.17606527482184
-0.00046212614786403
0.17608960547043
-0.00055469011374369
0.17611914267631
-0.0006511854830368
0.17615425503337
-0.00074966366040233
0.17619554374557
-0.00085255334728894
0.17624334034884
-0.00095669704763472
0.1762982953995
-0.0010657489846775
0.17636072686627
-0.0011747609573402
0.17643139102905
-0.0012894579785475
0.17651049898386
-0.0014020955456879
0.17659889364414
-0.0015216643606669
0.17669657680904
-0.0016360252845213
0.17680471084378
-0.0017595677628492
0.17692292794431
-0.0018731386669986
0.17705275789163
-0.0019996434781585
0.17719325192791
-0.0021092707437825
0.17734645032506
-0.0022378437029255
0.17751068261284
-0.0023396620442439
0.17768879780529
-0.0024699803683112
0.17787789726218
-0.0025591192347177
0.17808213310598
-0.0026916808460585
0.17829687164011
-0.0027621604518973
0.17852796276404
-0.0028983835188397
0.1787684586459
-0.0029434154331128
-0.0031005791192114
0.1790292361981
0.16612813191204
-3.994318375375e-05
0.16613180354458
-0.00012225360814558
0.16613823281734
-0.0002067284025773
0.16614774536036
-0.00029448372247794
0.16616070022314
-0.00038478254446729
0.1661774917861
-0.00047891772544513
0.16619854982742
-0.0005757481694803
0.1662243379233
-0.00067697359315491
0.16625527415167
-0.00078059990276993
0.16629192116725
-0.00088920037665279
0.16633467009339
-0.00099944598730453
0.1663842109712
-0.0011152898758111
0.16644090836474
-0.0012314583639405
0.16650549320692
-0.0013540428335816
0.16657827186921
-0.0014748742205734
0.16666013566172
-0.0016035281655578
0.16675116979698
-0.0017270594319129
0.16685253147063
-0.0018609294484308
0.16696403690977
-0.0019846441178099
0.16708712398799
-0.0021227305678496
0.16722107981298
-0.0022432265800123
0.16736799890964
-0.0023847628106563
0.1675263688344
-0.0024980319798754
0.16769907153288
-0.0026426830775553
0.1678834606582
-0.0027435083706889
0.16808365719702
-0.0028918773954897
0.16829533019013
-0.0029738334556015
0.16852439032296
-0.0031274436621681
0.16876411496251
-0.0031831400829562
-0.0033618956867461
0.16902543151854
0.15680389872681
-4.0813233945145e-05
0.15680673375514
-0.00012508865069058
0.15681182885457
-0.0002118235163042
0.1568194907454
-0.00030214562753589
0.15683007566464
-0.00039536747775079
0.156844007736
-0.00049284981066176
0.15686164937961
-0.00059338982670887
0.15688352426489
-0.00069884849181267
0.15691007855312
-0.00080715420408182
0.15694184557337
-0.0009209674097496
0.15697928678073
-0.0010368872072248
0.1570230592543
-0.0011590623617133
0.15707356803992
-0.0012819671616343
0.15713161968053
-0.0014120944860559
0.15719748745235
-0.0015407420040186
0.1572721586804
-0.0016781994050247
0.15735574343722
-0.0018106441999026
0.1574494222156
-0.0019546082377674
0.15755310257542
-0.0020883244883252
0.15766829841283
-0.0022379264157205
0.1577944387023
-0.0023693668796879
0.15793362310829
-0.0025239472266334
0.15808454493169
-0.0026489538130293
0.15825011530415
-0.0028082534596036
0.15842793936154
-0.0029213324375263
0.15862208206521
-0.0030860201085555
0.15882864363486
-0.0031803950346473
0.15905345690334
-0.0033522569400129
0.15929018345638
-0.003419866645295
-0.0036213611761555
0.15954964893523
0.14800295146092
-4.1413777878852e-05
0.14800501798525
-0.00012715518894619
0.14800877703607
-0.0002155825810915
0.14801458098378
-0.00030794958904187
0.14802278115192
-0.00040356765937972
0.14803380506482
-0.00050387373675483
0.14804801280426
-0.00060759757895569
0.14806594546938
-0.00071678116938869
0.1480880162309
-0.00082922497766519
0.14811480963413
-0.00094776082468732
0.14814679360012
-0.0010688711845779
0.14818461856922
-0.0011968873419025
0.14822867722519
-0.0013260258283946
0.1482797970571
-0.0014632143285253
0.14833832354396
-0.0015992685012022
0.14840520904272
-0.0017450849138906
0.14848065516272
-0.0018860903297556
0.14856592594413
-0.0020398790287959
0.14866093197237
-0.0021833305259075
0.14876724438748
-0.002344238839888
0.14888445763656
-0.0024865801375378
0.14901461860563
-0.0026541082041755
0.14915671066081
-0.0027910458763998
0.14931355167838
-0.0029650944851292
0.14948310027244
-0.0030908810393585
0.14966940124752
-0.0032723210913187
0.14986888398458
-0.0033798777794024
0.15008730369262
-0.0035706766558048
0.15031876793516
-0.003651330895712
-0.0038764835073424
0.15057389025711
0.13969594567615
-4.1742207236156e-05
0.13969723116447
-0.00012844069163252
0.13969969386279
-0.00021804529378611
0.13970369935634
-0.00031195509662097
0.13970958106196
-0.00040944937851553
0.13971773931775
-0.00051203200552208
0.13972857221864
-0.00061843049222971
0.13974258816921
-0.00073079713178381
0.13976020805637
-0.00084684487607262
0.13978203830144
-0.00096959108052217
0.13980846673515
-0.0010952996285838
0.13984018667022
-0.0012286072869105
0.13987764031385
-0.0013634794816084
0.1399216369821
-0.0015072110060992
0.13997250588294
-0.0016501374110969
0.14003131345635
-0.0018038924961238
0.14009820557783
-0.0019529824597852
0.14017446967319
-0.0021161431324499
0.14026013743912
-0.0022689982998181
0.1403567910849
-0.0024408924933142
0.14046414648917
-0.0025939355490806
0.14058425695313
-0.0027742186750409
0.14071623596521
-0.0029230248950073
0.14086297721025
-0.0031118357363575
0.14102272261967
-0.0032506264547023
0.14119948790159
-0.003449086379001
0.14139002679286
-0.0035704166764361
0.14160008305283
-0.0037807329216779
0.14182410774305
-0.0038753555921891
-0.0041247671417833
0.14207239136978
0.13185518358498
-4.1821076795651e-05
0.1318557091254
-0.00012896624838158
0.13185696280808
-0.000219298992921
0.13185924835544
-0.00031424065988385
0.13186286727529
-0.00041306831345516
0.13186825757645
-0.00051742232090388
0.13187584440581
-0.0006260173349376
0.13188604803728
-0.00074100077576054
0.13189928357931
-0.00086008042983245
0.13191617487828
-0.00098648239055167
0.13193710400922
-0.0011162287699893
0.13196278801384
-0.0012542913015426
0.13199363023768
-0.0013943217150421
0.13203044650202
-0.0015440272797253
0.13207356567833
-0.0016932565963961
0.13212402211339
-0.0018543489399089
0.1321820878724
-0.0020110482272208
0.13224903365635
-0.0021830889245192
0.13232489604455
-0.0023448606957589
0.13241132633056
-0.0025273227866495
0.13250804719699
-0.0026906564223725
0.13261729965903
-0.0028834711434448
0.13273817289372
-0.0030438981355367
0.1328737487807
-0.003247411628685
0.13302227171861
-0.0033991493975404
0.13318801914353
-0.0036148338085434
0.13336781087661
-0.0037502084140681
0.13356784615521
-0.0039807682049749
0.13378243156346
-0.004089941005658
-0.0043638161207431
0.13402148053566
0.12445451182007
-4.1686574908693e-05
0.12445436757897
-0.00012882202825403
0.12445445823624
-0.00021938967168298
0.12445508583889
-0.0003148682833832
0.12445660265789
-0.0004145851522089
0.12445940003906
-0.00052021972063459
0.12446383740232
-0.00063045471555337
0.12447035115708
-0.00074751454678266
0.12447939766468
-0.0008691269527046
0.12449150048955
-0.00099858522988579
0.12450709706418
-0.00113182535838
0.12452683161271
-0.0012740258633048
0.12455116463178
-0.0014186547468808
0.12458083897239
-0.0015737016327509
0.12461629665363
-0.0017287142897232
0.12465844183368
-0.0018964941317296
0.12470764069491
-0.0020602470998839
0.12476504484621
-0.002240493086861
0.12483080738694
-0.0024106232470614
0.12490665661834
-0.002603172028081
0.12499229186727
-0.002776291680692
0.12509007028453
-0.0029812495693993
0.12519899783074
-0.0031528256897118
0.12532254496808
-0.0033709587732413
0.12545855807852
-0.0035351625145205
0.12561205668254
-0.0037683324185305
0.12577939880991
-0.0039175505471089
0.12596772815125
-0.0041690975519928
0.1261710021035
-0.0042932149640612
-0.0045917515387774
0.12639893751374
0.11746920519856
-4.1348018012553e-05
0.11746840337097
-0.00012802022981487
0.11746740560468
-0.00021839193557049
0.11746652131136
-0.00031398401965825
0.11746607245631
-0.00041413632549261
0.11746639705851
-0.00052054434973366
0.11746791000237
-0.00063196768490034
0.11747099563117
-0.0007506001998036
0.11747611147717
-0.00087424282183303
0.11748366924172
-0.0010061430166847
0.11749419797323
-0.0011423541114201
0.11750822568058
-0.0012880535916183
0.11752629174779
-0.0014367208345888
0.11754899692085
-0.0015964068259302
0.11757691591009
-0.0017566332987162
0.11761076029439
-0.0019303385354072
0.11765115007188
-0.0021006368963393
0.11769901715304
-0.0022883601864834
0.11775476025207
-0.0024663663639373
0.11781982356274
-0.0026682353558301
0.11789416110172
-0.0028506292358838
0.11798008394841
-0.0030671724312733
0.11807660926682
-0.003249351022252
0.11818751060003
-0.0034818601194685
0.1183101712246
-0.0036578231510498
0.11845060777283
-0.0039087689777278
0.11860367067113
-0.0040706134556137
0.11877877149212
-0.0043441983827934
0.11896821822968
-0.0044826617115311
-0.0048097139469856
0.11918618062623
0.11087595066524
-4.0813817352439e-05
0.11087457033538
-0.0001266399399937
0.11087264595226
-0.00021646759390983
0.1108703842141
-0.0003117223223944
0.11086813399123
-0.00041188614217299
0.11086622233177
-0.00051863272830106
0.11086503756266
-0.00063078295234063
0.11086491103173
-0.00075047370416892
0.11086631741911
-0.00087564924346422
0.11086959014071
-0.0010094157717267
0.11087538310467
-0.0011481471081595
0.11088399722388
-0.0012966677431141
0.11089611884934
-0.0014488424918931
0.11091211173333
-0.0016123997414052
0.1109328760702
-0.0017773976666615
0.11095868151819
-0.0019561440140545
0.11099061183933
-0.0021325672476087
0.11102899770628
-0.0023267460829165
0.11107498867341
-0.0025123573597047
0.11112915933985
-0.0027224060498465
0.11119245833576
-0.0029139282580865
0.11126614374463
-0.0031408578649846
0.11135040601995
-0.0033336133208432
0.11144809125326
-0.0035795453744697
0.11155736318489
-0.003767095102773
0.11168398893215
-0.0040353947434565
0.11182235337071
-0.0042089779111803
0.11198289707221
-0.0045047421001583
0.11215460847505
-0.0046543731296187
-0.005023038183119
0.11236793269429
0.1046527975188
-4.0145411060511e-05
0.1046509373451
-0.00012477981754655
0.10464818873425
-0.00021371903532057
0.1046447021864
-0.00030823582612133
0.1046408643849
-0.00040804839090931
0.10463689484309
-0.00051466323527503
0.104633276656
-0.00062716481273481
0.10463021406395
-0.00074741115852804
0.10462825024953
-0.0008736854746218
0.10462756448074
-0.0010087300478919
0.10462896446172
-0.001149547133633
0.10463247079365
-0.0013001741191468
0.1046391196209
-0.0014554913629128
0.10464878584638
-0.0016220660102948
0.104662844629
-0.0017914564923002
0.10468091023498
-0.0019742096625407
0.10470491249852
-0.0021565695530246
0.10473398988371
-0.0023558235090909
0.10477084330895
-0.002549210824776
0.10481401757906
-0.0027655803582579
0.10486715966961
-0.0029670703851133
0.10492804473891
-0.003201742968639
0.1050012995445
-0.0034068681585995
0.10508423609218
-0.0036624819520569
0.10518192756993
-0.0038647866081339
0.10529248824826
-0.0041459554469545
0.10541903119191
-0.0043355208775891
0.10556399871211
-0.0046497096410647
0.10571918475615
-0.0048095591927703
-0.0052248439435551
0.10592099049552
0.098778951853581
-3.9379048221336e-05
0.098776680298868
-0.00012250832150073
0.098773171468353
-0.0002102102640536
0.098768569459966
-0.00030363387626838
0.098763263780609
-0.00040274276896153
0.098757429921473
-0.00050882943243564
0.098751638606354
-0.00062137355299586
0.098745847957298
-0.00074162056421842
0.098740787895454
-0.00086862546712114
0.09873650063775
-0.0010044428443222
0.098733812294346
-0.0011468588442348
0.098732595886476
-0.001298957765206
0.098734108396639
-0.0014570039268763
0.09873780128378
-0.0016257589510655
0.098745538682136
-0.0017991939439735
0.098756243558157
-0.0019849145914277
0.098772686674241
-0.0021730127212467
0.098792749298716
-0.0023758861846413
0.098820849911026
-0.0025773114865935
0.098853116929438
-0.0027978474240785
0.09889644691803
-0.0030104004184731
0.09894421195946
-0.0032495080518665
0.099007326609367
-0.0034699828471842
0.099074768053642
-0.0037299234318577
0.099162900203888
-0.0039529187906517
0.099255379499534
-0.0042384347713253
0.099374263011678
-0.0044544044149598
0.099502554724489
-0.0047780013762094
0.09965697152845
-0.004963976017511
0.099829789064626
-0.0053976615021437
0.39322271513385
0.0047135393851278
0.38866643296806
0.0045562821488668
0.38427190474978
0.004394528201603
0.38004353904001
0.0042283656931031
0.37598549732285
0.0040580417004707
0.37210191590478
0.0038835814012246
0.36839668002093
0.0037052358668924
0.36487353143097
0.0035231485727903
0.36153602819088
0.003337503222796
0.35838762241978
0.0031484057535789
0.35543154067248
0.0029560817296712
0.35267079999192
0.0027607406627195
0.35010825773991
0.0025625422340638
0.34774659405426
0.002361663667503
0.34558829352029
0.0021583005157396
0.34363564049699
0.0019526530048748
0.34189067622836
0.0017449642501515
0.3403553180614
0.0015353581482914
0.33903123142288
0.0013240866198228
0.33791988855614
0.0011113428478546
0.33702252996202
0.00089735857519578
0.33634024304665
0.00068228689626296
0.33587378708093
0.00046645594658328
0.33562382052114
0.00024996654045216
0.33559070075278
3.3119748984905e-05
0.3357747477276
-0.00018404699440769
0.3361759301002
-0.00040118239222981
0.33679397968064
-0.00061804960027991
0.337628446341
-0.0008344666802351
0.33867872622181
-0.001050279900872