/*--------------------------------*- C++ -*----------------------------------*\
| =========                 |                                                 |
| \\      /  F ield         | OpenFOAM: The Open Source CFD Toolbox           |
|  \\    /   O peration     | Version:  v1912                                 |
|   \\  /    A nd           | Website:  www.openfoam.com                      |
|    \\/     M anipulation  |                                                 |
\*---------------------------------------------------------------------------*/
FoamFile
{
    version     2.0;
    format      ascii;
    class       volVectorField;
    location    "0";
    object      U;
}
// * * * * * * * * * * * * * * * * * * * * * * * * * * * * * * * * * * * * * //

dimensions      [0 1 -1 0 0 0 0];


internalField   nonuniform List<vector> 
22000
(
(1.0000002299965 -2.009432157582e-05 0)
(1.0000213388226 -6.4427275342366e-05 0)
(1.0000632029402 -0.00011046729035283 0)
(1.0001271839508 -0.00015683753095678 0)
(1.0002140150068 -0.000203127472822 0)
(1.0003236832473 -0.00024922466749148 0)
(1.0004558976304 -0.00029507141192002 0)
(1.0006103710086 -0.00034062536903066 0)
(1.0007868815166 -0.00038583348652359 0)
(1.0009852622952 -0.00043065769943394 0)
(1.0012053381087 -0.00047503377709104 0)
(1.0014469232462 -0.00051893377944523 0)
(1.0017097699849 -0.00056227130339066 0)
(1.0019936323662 -0.00060504629044361 0)
(1.0022981813804 -0.00064712454320544 0)
(1.0026231403447 -0.00068857323650799 0)
(1.0029680934241 -0.00072914941753735 0)
(1.0033327646743 -0.00076907838595243 0)
(1.0037166074161 -0.00080786779451031 0)
(1.0041193970791 -0.00084611190829424 0)
(1.0045403700805 -0.00088274534833683 0)
(1.0049794594742 -0.00091922079941421 0)
(1.0054355143889 -0.00095315348093815 0)
(1.0059088579201 -0.00098798481893631 0)
(1.0063976147663 -0.0010182928105636 0)
(1.0069029479531 -0.0010521097652203 0)
(1.0074216172268 -0.001077034920452 0)
(1.0079564663186 -0.0011115978712919 0)
(1.0085018886903 -0.0011277951802106 0)
(1.0090634072398 -0.0011661179445186 0)
(0.99999993493595 -5.9329178871324e-05 0)
(1.0000209683623 -0.00018999173074141 0)
(1.000063106298 -0.00032571478685938 0)
(1.0001275608053 -0.00046250517310298 0)
(1.0002150583554 -0.00059913638719553 0)
(1.0003256624335 -0.00073526159937878 0)
(1.00045913301 -0.00087070675114228 0)
(1.0006152139747 -0.0010053473413223 0)
(1.0007936906991 -0.0011390278675513 0)
(1.0009944188267 -0.0012716360756255 0)
(1.0012172232082 -0.0014029829407104 0)
(1.0014619592605 -0.0015329858016871 0)
(1.0017283662345 -0.0016613913403797 0)
(1.0020162707438 -0.0017881984573892 0)
(1.0023252929094 -0.0019130147503161 0)
(1.0026552910666 -0.0020360346586404 0)
(1.0030057098915 -0.0021565493734537 0)
(1.0033765413932 -0.0022752113390293 0)
(1.0037669060735 -0.0023905881618608 0)
(1.0041771339132 -0.0025043991640836 0)
(1.0046057054524 -0.0026135549100598 0)
(1.0050537296453 -0.0027222500077592 0)
(1.0055183888006 -0.0028235938265706 0)
(1.0060025138965 -0.0029274986732792 0)
(1.0065006153547 -0.0030183565294667 0)
(1.0070192119363 -0.0031192335254645 0)
(1.0075473387635 -0.0031945679654185 0)
(1.0080991614045 -0.0032974147784066 0)
(1.008653031044 -0.0033476394703705 0)
(1.0092372957744 -0.0034614782217389 0)
(0.99999993864587 -9.7118602051458e-05 0)
(1.0000217676802 -0.00031068261471189 0)
(1.0000654071216 -0.00053251483413636 0)
(1.000131989095 -0.00075619372595575 0)
(1.0002221832562 -0.00097971443341177 0)
(1.0003360483546 -0.0012025023075943 0)
(1.0004733582552 -0.0014242751322725 0)
(1.0006338894674 -0.0016448399385393 0)
(1.0008174411218 -0.0018639522186439 0)
(1.0010239083123 -0.0020814413290917 0)
(1.0012531178609 -0.0022970046009581 0)
(1.0015049911701 -0.0025105214621537 0)
(1.0017792489537 -0.0027215787036835 0)
(1.0020758365738 -0.002930194946695 0)
(1.0023942959128 -0.0031357178660543 0)
(1.0027347081046 -0.0033384995539824 0)
(1.003096296229 -0.0035373444374011 0)
(1.0034794968473 -0.0037333859007376 0)
(1.0038828842513 -0.0039241886156954 0)
(1.0043077178384 -0.0041127073104222 0)
(1.004751210089 -0.0042936728210511 0)
(1.0052164685615 -0.0044742633989485 0)
(1.005697815474 -0.0046427226359314 0)
(1.006202424225 -0.0048159747397911 0)
(1.0067184599225 -0.0049674097797831 0)
(1.0072619168187 -0.0051363447524059 0)
(1.0078079175227 -0.0052622252932546 0)
(1.0083911639606 -0.0054353558959244 0)
(1.0089603335889 -0.005519418188139 0)
(1.0095863432756 -0.0057122408129711 0)
(0.99999994590357 -0.00013408187331723 0)
(1.0000226593124 -0.00042862061433789 0)
(1.0000680003151 -0.00073445297537924 0)
(1.0001371048516 -0.0010428310988719 0)
(1.0002306295859 -0.0013510366282222 0)
(1.0003486261363 -0.0016583061455432 0)
(1.0004908655195 -0.0019642763679256 0)
(1.0006571539049 -0.002268712960796 0)
(1.0008473048112 -0.0025713065602975 0)
(1.0010612712004 -0.0028718570689947 0)
(1.0012988859858 -0.0031699687154693 0)
(1.0015601669743 -0.0034655132904367 0)
(1.001844810072 -0.0037579290859472 0)
(1.002152931627 -0.0040472899213343 0)
(1.0024839650389 -0.0043326776379993 0)
(1.0028383116216 -0.0046146531253169 0)
(1.0032148836075 -0.0048914933501244 0)
(1.0036147543654 -0.0051649041473642 0)
(1.0040357267849 -0.0054313334400322 0)
(1.0044803874765 -0.0056951586395741 0)
(1.0049441538138 -0.0059486596071529 0)
(1.0054329736136 -0.0062024056014042 0)
(1.005937121869 -0.0064391592830223 0)
(1.0064699322879 -0.0066837597259462 0)
(1.0070105943104 -0.0068972235669726 0)
(1.0075885241505 -0.0071371248831579 0)
(1.0081591922131 -0.0073148836492246 0)
(1.0087863646978 -0.0075624862656189 0)
(1.0093768456685 -0.0076808158837863 0)
(1.0100617785556 -0.0079587193974972 0)
(0.99999995655622 -0.00017042393833109 0)
(1.0000236438788 -0.00054435919460501 0)
(1.0000708546826 -0.00093243147210871 0)
(1.0001427400295 -0.0013236775153573 0)
(1.0002399534027 -0.0017147274269109 0)
(1.0003625481149 -0.0021046746455586 0)
(1.0005102941307 -0.0024931112226347 0)
(1.0006830352787 -0.0028797967807684 0)
(1.0008806041377 -0.003264386374728 0)
(1.0011030314244 -0.0036466851745409 0)
(1.0013501629204 -0.0040262283394224 0)
(1.0016221461683 -0.0044029173539471 0)
(1.001918651291 -0.0047760549445505 0)
(1.0022400205106 -0.0051458146623685 0)
(1.0025855551921 -0.0055110031005288 0)
(1.0029560745638 -0.0058724554027365 0)
(1.0033501017817 -0.0062278663986683 0)
(1.003769533555 -0.0065796328896924 0)
(1.0042111985413 -0.0069229360349372 0)
(1.0046793864107 -0.0072638201267121 0)
(1.005167240702 -0.0075917583962874 0)
(1.0056843364615 -0.0079212438326836 0)
(1.0062158172827 -0.0082287522122198 0)
(1.0067828583705 -0.0085482199648218 0)
(1.0073532754838 -0.0088264988669955 0)
(1.0079735192559 -0.0091420465098977 0)
(1.0085741825632 -0.0093743059973776 0)
(1.0092558390751 -0.0097027467021968 0)
(1.0098723135456 -0.0098568667955788 0)
(1.0106309325667 -0.010228835687676 0)
(0.99999996791116 -0.00020617645777559 0)
(1.000024647725 -0.00065798410464467 0)
(1.0000737547037 -0.0011266037481285 0)
(1.0001484478272 -0.0015989761639376 0)
(1.0002493786333 -0.0020711414619599 0)
(1.0003766090272 -0.0025420953234535 0)
(1.0005299154371 -0.0030114235815943 0)
(1.0007091934659 -0.0034789192724325 0)
(1.0009143041664 -0.0039442348999175 0)
(1.0011453778293 -0.0044072203781164 0)
(1.0014022824106 -0.0048673687058916 0)
(1.0016853297226 -0.0053246538924151 0)
(1.0019941675829 -0.0057782576444769 0)
(1.0023294198727 -0.0062285052765011 0)
(1.0026902398561 -0.0066739172394419 0)
(1.0030779604796 -0.0071156798350731 0)
(1.0034906509852 -0.0075508425932517 0)
(1.0039312087229 -0.0079826322596138 0)
(1.0043953115347 -0.0084047894472239 0)
(1.0048893016545 -0.0088253107776153 0)
(1.0054036240129 -0.0092304502329526 0)
(1.0059521998523 -0.0096392447762239 0)
(1.0065140773615 -0.010020950483408 0)
(1.0071197827288 -0.010419972941005 0)
(1.0077236293055 -0.010766926828607 0)
(1.0083923215218 -0.011164193330222 0)
(1.0090269449731 -0.011454674195131 0)
(1.0097717390245 -0.011872016736615 0)
(1.010417756202 -0.012064420040458 0)
(1.0112626265952 -0.012541543631846 0)
(0.99999998197257 -0.00024125578169157 0)
(1.0000255837121 -0.00076922942190433 0)
(1.000076438357 -0.0013165189379624 0)
(1.0001537096415 -0.0018680982775025 0)
(1.0002580436407 -0.0024194837027011 0)
(1.0003895180019 -0.0029696212325771 0)
(1.0005479245421 -0.003518131716385 0)
(1.0007332265434 -0.0040648850650031 0)
(1.0009453248749 -0.004609568431034 0)
(1.0011844722102 -0.0051521210735514 0)
(1.0014505702145 -0.0056920247353732 0)
(1.0017441299335 -0.0062293744463604 0)
(1.0020647845306 -0.0067632485721639 0)
(1.0024134948488 -0.0072941831836701 0)
(1.0027892578717 -0.0078204029574396 0)
(1.0031940122665 -0.0083435318478893 0)
(1.0036253236688 -0.0088599078720991 0)
(1.0040872547575 -0.0093737417993256 0)
(1.0045741868658 -0.0098771476050657 0)
(1.0050948297491 -0.010380386720856 0)
(1.0056365722604 -0.010866049475034 0)
(1.0062183139856 -0.011358390174433 0)
(1.0068121883401 -0.011818439108798 0)
(1.0074593870988 -0.012302551998746 0)
(1.0080989071069 -0.012722875210995 0)
(1.008820470481 -0.013208981116219 0)
(1.0094917319837 -0.013562325002759 0)
(1.0103064454905 -0.014077908284472 0)
(1.0109846080372 -0.014312001340869 0)
(1.0119261854669 -0.014906911694098 0)
(0.99999999574042 -0.00027548102996533 0)
(1.0000263646913 -0.0008775271362533 0)
(1.0000786560207 -0.0015012146049238 0)
(1.000158027994 -0.0021296908978124 0)
(1.000265121386 -0.0027580198373985 0)
(1.0004000366777 -0.0033851493824926 0)
(1.0005625904338 -0.0040107797634551 0)
(1.0007528294172 -0.0046349050229934 0)
(1.0009707069642 -0.0052572881001358 0)
(1.0012166210954 -0.0058780068020517 0)
(1.0014905210051 -0.0064965666505113 0)
(1.0017931514109 -0.0071132372286785 0)
(1.002124142625 -0.0077270151519761 0)
(1.0024848455229 -0.0083387120021999 0)
(1.0028741011117 -0.0089462503890977 0)
(1.0032945391625 -0.0095517854328168 0)
(1.0037431897018 -0.010150879273906 0)
(1.004225427822 -0.010748889927752 0)
(1.0047342298906 -0.011336117179457 0)
(1.005280945176 -0.011925412772802 0)
(1.0058496269456 -0.012495250881064 0)
(1.0064646853685 -0.013075796874165 0)
(1.0070906908224 -0.013618828500953 0)
(1.0077805750865 -0.014194167407413 0)
(1.008456582662 -0.014693215217677 0)
(1.0092336891565 -0.015276067246588 0)
(1.0099430024667 -0.015697737305268 0)
(1.0108324797565 -0.016321878456559 0)
(1.0115444975376 -0.016602027405363 0)
(1.0125910039309 -0.017328535382474 0)
(1.0000000112688 -0.00030860032897601 0)
(1.0000269112793 -0.00098209301203027 0)
(1.0000801680238 -0.0016793654601441 0)
(1.0001609309856 -0.0023818914845931 0)
(1.0002698329053 -0.0030843590382883 0)
(1.000407004375 -0.0037857721934475 0)
(1.0005722955377 -0.0044859573187958 0)
(1.0007658509043 -0.0051850822461477 0)
(1.0009876886804 -0.0058830296759693 0)
(1.0012383740749 -0.006580068250353 0)
(1.0015179192836 -0.0072757660161685 0)
(1.0018273353293 -0.0079706244665883 0)
(1.0021662654713 -0.0086635846923391 0)
(1.0025364994086 -0.0093558027937822 0)
(1.0029367314164 -0.010044898727564 0)
(1.0033703578026 -0.010733656364199 0)
(1.0038338607039 -0.011416805021135 0)
(1.0043340514864 -0.012101015681423 0)
(1.0048624360488 -0.012774597258168 0)
(1.0054332207052 -0.013453314883508 0)
(1.0060269382395 -0.01411109283321 0)
(1.006673915381 -0.014784686155017 0)
(1.0073307129698 -0.015415630789745 0)
(1.0080628049084 -0.01608868455863 0)
(1.0087746756779 -0.016672310161063 0)
(1.0096081763838 -0.017360341558203 0)
(1.0103556835195 -0.017856539305619 0)
(1.0113227248512 -0.018600232272716 0)
(1.0120694221605 -0.018931822157431 0)
(1.0132266955839 -0.019804500348867 0)
(1.0000000260621 -0.00034032387787045 0)
(1.0000271526638 -0.0010820251053202 0)
(1.0000807663826 -0.0018494462737428 0)
(1.0001620016223 -0.0026225520043662 0)
(1.0002714860931 -0.0033957353526864 0)
(1.00040938723 -0.004168113242578 0)
(1.0005755968386 -0.0049396871185843 0)
(1.0007703695883 -0.0057108497541494 0)
(1.0009938004412 -0.0064816496476447 0)
(1.0012466407112 -0.0072526000418246 0)
(1.0015289813939 -0.0080233734857425 0)
(1.0018421282388 -0.0087947627797412 0)
(1.002185756391 -0.0095656849601239 0)
(1.0025621362016 -0.010337711802882 0)
(1.0029698335738 -0.011108168299879 0)
(1.0034130729804 -0.011880565300231 0)
(1.0038877980845 -0.012648755817687 0)
(1.0044023506869 -0.013420884760364 0)
(1.0049467492879 -0.014183117445113 0)
(1.0055382097838 -0.014954436562977 0)
(1.0061536638748 -0.01570382965459 0)
(1.0068296187916 -0.016475267349461 0)
(1.0075144060896 -0.017199152841813 0)
(1.0082865215989 -0.01797652064533 0)
(1.0090321729945 -0.018650913181215 0)
(1.0099210254093 -0.019452819568974 0)
(1.010705568454 -0.020030403858501 0)
(1.0117508128807 -0.020905018279096 0)
(1.0125321501454 -0.021294587374663 0)
(1.0138035091236 -0.022328233777069 0)
(1.0000000421154 -0.00037034849669779 0)
(1.0000270335866 -0.0011763841768969 0)
(1.0000802842134 -0.0020098683661066 0)
(1.0001609097986 -0.0028494311380964 0)
(1.0002695280881 -0.0036892557580696 0)
(1.0004063478904 -0.0045286295619937 0)
(1.0005713115746 -0.0053677791736329 0)
(1.0007647950461 -0.0062073734169941 0)
(1.000986981947 -0.007047674619317 0)
(1.0012388246339 -0.0078894944028869 0)
(1.0015205088622 -0.0087326554648279 0)
(1.0018336569732 -0.0095783008944469 0)
(1.0021779976026 -0.01042536171895 0)
(1.0025563131167 -0.011275895112353 0)
(1.0029670683311 -0.012126950431265 0)
(1.0034153594151 -0.012982859089425 0)
(1.003896623739 -0.013836574954817 0)
(1.004420792216 -0.014697864092119 0)
(1.0049764312451 -0.015550633632068 0)
(1.0055838434657 -0.016417351317912 0)
(1.0062163955365 -0.017261756752208 0)
(1.0069168745423 -0.018135570480187 0)
(1.0076254115876 -0.018957331451954 0)
(1.0084336587421 -0.019845473114928 0)
(1.0092095491492 -0.020616981585365 0)
(1.0101507397976 -0.021541416859651 0)
(1.0109698044026 -0.0222077684406 0)
(1.0120914354611 -0.023224557093405 0)
(1.0129067899564 -0.023680126362823 0)
(1.0142931507672 -0.024889613156182 0)
(1.00000005686 -0.00039837579650681 0)
(1.0000265117347 -0.0012642464387071 0)
(1.0000786057064 -0.0021590720713313 0)
(1.0001574182505 -0.0030603318858204 0)
(1.0002635538872 -0.0039620858303094 0)
(1.0003972656626 -0.004863847221368 0)
(1.0005585549672 -0.0057661169177771 0)
(1.0007479257892 -0.0066698880162124 0)
(1.0009656620282 -0.0075756858415444 0)
(1.0012129251814 -0.008484671165092 0)
(1.0014900135104 -0.0093968675060786 0)
(1.00179887711 -0.010313822946951 0)
(1.0021393248651 -0.011234530907446 0)
(1.0025146657498 -0.012161595586372 0)
(1.002923303173 -0.013091828955109 0)
(1.0033712220584 -0.014030461598542 0)
(1.003853412684 -0.014969558221155 0)
(1.0043814092917 -0.015920624806347 0)
(1.0049424184098 -0.016865252822299 0)
(1.0055598234414 -0.017829604246274 0)
(1.0062035816889 -0.018771966285325 0)
(1.0069226901489 -0.019752213847551 0)
(1.0076493689414 -0.020676510388078 0)
(1.0084881891635 -0.021681509308917 0)
(1.0092893833254 -0.022556482509885 0)
(1.0102779577919 -0.023611785211695 0)
(1.0111279794587 -0.024374745405428 0)
(1.0123205050725 -0.025544137740399 0)
(1.0131729238897 -0.026079501713073 0)
(1.0146650602301 -0.027471174540077 0)
(1.0000000720105 -0.00042412841196322 0)
(1.0000255608116 -0.0013447593467072 0)
(1.0000756498626 -0.0022956233285457 0)
(1.0001513669702 -0.0032532378384356 0)
(1.0002532937564 -0.004211624944429 0)
(1.0003817271924 -0.0051705751159763 0)
(1.0005367368394 -0.0061309099043653 0)
(1.0007189559319 -0.0070939900597546 0)
(1.0009287801046 -0.0080606527896252 0)
(1.0011675766438 -0.0090324527632906 0)
(1.001435777199 -0.010009669816973 0)
(1.0017356531154 -0.010994302575447 0)
(1.0020671327497 -0.011985470095939 0)
(1.0024340363457 -0.012986367950411 0)
(1.0028347717264 -0.013993639980752 0)
(1.0032761814796 -0.015013460638992 0)
(1.0037529156143 -0.016037073196861 0)
(1.0042780532624 -0.017077780422401 0)
(1.0048376128817 -0.01811489976151 0)
(1.005457942637 -0.019178389602773 0)
(1.0061058831965 -0.020221043800105 0)
(1.0068363832644 -0.021311109352458 0)
(1.0075743030629 -0.022342149042319 0)
(1.0084365289398 -0.023469487525468 0)
(1.0092567230104 -0.024454112127188 0)
(1.010285750964 -0.025648056307788 0)
(1.0111619550475 -0.026515867154851 0)
(1.0124177848223 -0.027847321348605 0)
(1.0133072110076 -0.028476397706442 0)
(1.0148958063564 -0.030057478838715 0)
(1.000000085689 -0.00044736967399759 0)
(1.0000241686786 -0.0014171999786701 0)
(1.000071384166 -0.0024183080483619 0)
(1.0001426858259 -0.0034264411651841 0)
(1.000238625613 -0.0044356653103249 0)
(1.0003595424718 -0.0054460947233988 0)
(1.0005055795455 -0.0064589127803323 0)
(1.0006774965742 -0.0074758869558966 0)
(1.0008758087896 -0.0084982113486007 0)
(1.0011020786037 -0.0095278753034333 0)
(1.0013568896449 -0.010565469527331 0)
(1.0016428125591 -0.011613482163111 0)
(1.0019599403034 -0.012671229694307 0)
(1.0023125592024 -0.013742526507513 0)
(1.0026991766642 -0.014823950846275 0)
(1.0031273972421 -0.015922618478854 0)
(1.0035917125898 -0.017029102162158 0)
(1.0041065641726 -0.018158451268514 0)
(1.004657100329 -0.019287915025974 0)
(1.0052723200473 -0.020451157477747 0)
(1.0059164596257 -0.021595703992267 0)
(1.0066499022922 -0.022798094416292 0)
(1.0073909888105 -0.023939465471726 0)
(1.0082679524452 -0.025193782118181 0)
(1.0090995076591 -0.026293887124223 0)
(1.0101602205037 -0.027633390839448 0)
(1.0110562379088 -0.028614397410586 0)
(1.0123667278097 -0.030116816412138 0)
(1.0132882811827 -0.030851093418166 0)
(1.0149661169131 -0.032632505152521 0)
(1.0000000992224 -0.00046791417090097 0)
(1.0000223381182 -0.0014810072455202 0)
(1.0000658143855 -0.0025261866750873 0)
(1.0001313902244 -0.003578619876527 0)
(1.0002195741076 -0.0046324934257505 0)
(1.0003307438058 -0.0056882859501752 0)
(1.0004651172495 -0.0067475768127222 0)
(1.0006235765823 -0.0078125747264153 0)
(1.0008067543825 -0.0088848681193413 0)
(1.0010163989393 -0.009966920752122 0)
(1.0012532473196 -0.011059678905615 0)
(1.0015201554492 -0.012166165103655 0)
(1.001817396737 -0.013285948556462 0)
(1.0021496948748 -0.014423508020008 0)
(1.002515711151 -0.015575433674624 0)
(1.0029237399914 -0.01674981008636 0)
(1.0033682607102 -0.017936672695224 0)
(1.0038648883984 -0.019152769118257 0)
(1.0043982506285 -0.02037355376343 0)
(1.0049995549193 -0.021636154055706 0)
(1.0056311675142 -0.022883373148429 0)
(1.0063580141228 -0.024199485695248 0)
(1.0070932512282 -0.025454065656224 0)
(1.0079748973522 -0.026838892039987 0)
(1.008808949943 -0.028059738696135 0)
(1.0098909612475 -0.029550626210232 0)
(1.0107988206399 -0.030653000009917 0)
(1.0121538770597 -0.03233442817769 0)
(1.0131000569937 -0.033184367646658 0)
(1.014858789285 -0.03517750118536 0)
(1.0000001110351 -0.00048563433392304 0)
(1.0000200860808 -0.0015358012977748 0)
(1.0000589936014 -0.0026186270567657 0)
(1.0001175811623 -0.0037088846556561 0)
(1.0001963035149 -0.0048009512675521 0)
(1.0002955730508 -0.0058957034914614 0)
(1.0004156784156 -0.0069951437180868 0)
(1.0005576169703 -0.0081019492725756 0)
(1.0007221293734 -0.0092181339713116 0)
(1.0009111371322 -0.010346669435852 0)
(1.0011255207917 -0.011488896542493 0)
(1.0013684073705 -0.012648413292362 0)
(1.0016402452478 -0.013825090441327 0)
(1.0019461785223 -0.015024120288909 0)
(1.0022850299919 -0.016242166246451 0)
(1.0026657564607 -0.017488337036926 0)
(1.0030828727307 -0.018752214184105 0)
(1.0035530942567 -0.020052286387566 0)
(1.0040606903979 -0.021362358735726 0)
(1.0046388402812 -0.022722966184181 0)
(1.0052485260236 -0.024072557199607 0)
(1.0059585121266 -0.025502706298605 0)
(1.0066780278156 -0.026872433278917 0)
(1.0075531395854 -0.028389962353663 0)
(1.0083798272791 -0.02973621319269 0)
(1.0094711765284 -0.031382835913679 0)
(1.0103815441798 -0.032614363550549 0)
(1.0117694571313 -0.034481653630262 0)
(1.0127307265028 -0.0354569475229 0)
(1.014560140463 -0.037672452709435 0)
(1.0000001223598 -0.00050046262244631 0)
(1.0000174417987 -0.001581390360357 0)
(1.0000510062803 -0.0026953159050546 0)
(1.0001014306749 -0.0038167955327846 0)
(1.0001691004414 -0.0049404595970505 0)
(1.0002544559773 -0.0060676077664821 0)
(1.0003578510954 -0.0072006849337095 0)
(1.0004803865165 -0.0083428564018814 0)
(1.0006228969229 -0.0094965857153369 0)
(1.0007874582974 -0.010665377911713 0)
(1.000975078275 -0.011851001909018 0)
(1.0011891324429 -0.013057663922298 0)
(1.0014302305319 -0.014285582734532 0)
(1.0017039099317 -0.015540703984192 0)
(1.0020091514236 -0.016819829852391 0)
(1.0023555372733 -0.018133135120378 0)
(1.0027376422667 -0.019469844165786 0)
(1.0031732184834 -0.020850216094542 0)
(1.0036462773668 -0.022246563808862 0)
(1.004191809011 -0.02370279554802 0)
(1.0047697269089 -0.025153315666913 0)
(1.0054521512465 -0.026696716325869 0)
(1.0061453180702 -0.02818227899055 0)
(1.0070019296071 -0.029833493371274 0)
(1.0078104006455 -0.031308812147487 0)
(1.008897893537 -0.033113861720717 0)
(1.0098002664226 -0.034481996186307 0)
(1.0112077087365 -0.036540315023049 0)
(1.0121727218357 -0.037649572696921 0)
(1.0140606155297 -0.040096900960238 0)
(1.000000131969 -0.00051239054448887 0)
(1.0000144451951 -0.0016177674291595 0)
(1.0000419727684 -0.0027562536562171 0)
(1.000083173278 -0.0039023552597292 0)
(1.0001383526143 -0.0050510097802041 0)
(1.0002079715972 -0.0062039566413291 0)
(1.0002924397468 -0.0073640950167377 0)
(1.0003929445342 -0.0085350882674612 0)
(1.0005103975041 -0.0097198673123724 0)
(1.0006470033621 -0.010922486981218 0)
(1.0008038779682 -0.01214517301389 0)
(1.0009846109081 -0.013392761732656 0)
(1.0011899582316 -0.014665864480562 0)
(1.0014258026082 -0.01597120553672 0)
(1.0016912858024 -0.017305798428891 0)
(1.001996540088 -0.018680902290414 0)
(1.0023362525749 -0.02008550977378 0)
(1.0027290697524 -0.021541627116753 0)
(1.003158923839 -0.023020315935811 0)
(1.0036623052895 -0.024568694117389 0)
(1.0041985379546 -0.026117648641737 0)
(1.0048423683586 -0.027772189839519 0)
(1.0054982165921 -0.029373176161858 0)
(1.0063236989777 -0.031157490601779 0)
(1.0071024444144 -0.032764544680057 0)
(1.008171772883 -0.03472889076181 0)
(1.0090548417318 -0.036240556461464 0)
(1.0104668854155 -0.038492894463336 0)
(1.0114228468746 -0.039744014405261 0)
(1.0133554643787 -0.042431127939589 0)
(1.0000001411854 -0.00052146409063539 0)
(1.0000111433144 -0.001645096530911 0)
(1.000032030574 -0.0028017321718863 0)
(1.0000630867776 -0.0039659797556733 0)
(1.0001045242288 -0.0051331288459476 0)
(1.0001568138873 -0.0063053653534811 0)
(1.0002204134065 -0.0074860486009514 0)
(1.0002965740939 -0.0086793397613952 0)
(1.0003862660642 -0.0098886485282094 0)
(1.000491786657 -0.011118582839867 0)
(1.0006143439484 -0.012371851737713 0)
(1.000757691035 -0.01365392926911 0)
(1.0009227245572 -0.014965866999828 0)
(1.001115591884 -0.01631517121037 0)
(1.0013356227024 -0.017699151799813 0)
(1.0015933610939 -0.019130135154287 0)
(1.0018837197845 -0.020597045992739 0)
(1.0022259773604 -0.0221235434571 0)
(1.0026042959505 -0.023679784930372 0)
(1.003056138051 -0.025315758043648 0)
(1.0035409647691 -0.026959653416865 0)
(1.0041350607379 -0.028721847515276 0)
(1.0047426086295 -0.030436779671642 0)
(1.0055238737427 -0.032351934552267 0)
(1.0062610334411 -0.034092257926717 0)
(1.0072969834317 -0.036214887153469 0)
(1.0081486944658 -0.037876160745242 0)
(1.0095491162759 -0.040323141127525 0)
(1.0104822247361 -0.041723614682874 0)
(1.0124445072239 -0.044656820669924 0)
(1.0000001495653 -0.0005277732016559 0)
(1.0000075845878 -0.0016636876669294 0)
(1.0000213297931 -0.0028322955979539 0)
(1.0000414716417 -0.0040084466136392 0)
(1.0000681213968 -0.0051878165257151 0)
(1.0001017460217 -0.0063730344461708 0)
(1.0001428429999 -0.0075679209820504 0)
(1.0001926999717 -0.0087771232394967 0)
(1.0002523321576 -0.010004539403451 0)
(1.0003240791704 -0.011255316475948 0)
(1.0004092314716 -0.012532673301431 0)
(1.0005116318044 -0.0138427042567 0)
(1.0006323318105 -0.015186961538773 0)
(1.0007776244915 -0.016573703083934 0)
(1.0009470898524 -0.018000648001895 0)
(1.0011514763883 -0.019481118162766 0)
(1.0013860977907 -0.021004187536283 0)
(1.0016704942629 -0.022594986651207 0)
(1.0019894640982 -0.024223215137141 0)
(1.0023807605392 -0.025941259433423 0)
(1.0028048406876 -0.027675573683578 0)
(1.0033382562979 -0.029540749616843 0)
(1.0038866904991 -0.031366833637345 0)
(1.0046106115492 -0.033409278558262 0)
(1.0052941552779 -0.035282849366647 0)
(1.0062810114601 -0.037561068738797 0)
(1.007088735268 -0.039376781379968 0)
(1.0084594556376 -0.042015896020532 0)
(1.00935614167 -0.043574051102578 0)
(1.0113321344957 -0.04675667053764 0)
(1.0000001552953 -0.00053144987904882 0)
(1.0000038137803 -0.0016739437022628 0)
(1.0000100093724 -0.0028486531276061 0)
(1.0000186211707 -0.0040307824101129 0)
(1.0000296538245 -0.0052164119062485 0)
(1.0000435470853 -0.0064086025416877 0)
(1.0000608347297 -0.0076116316795914 0)
(1.0000828031578 -0.0088306018809437 0)
(1.0001105082607 -0.010069912799193 0)
(1.0001462693096 -0.011335219197033 0)
(1.0001914667593 -0.012630287097446 0)
(1.0002499259335 -0.013961770814557 0)
(1.0003228929182 -0.015331810119254 0)
(1.0004166397378 -0.016749317675294 0)
(1.0005311043519 -0.018212600889741 0)
(1.0006769673072 -0.019735801849733 0)
(1.0008501710635 -0.021308461977039 0)
(1.0010700701269 -0.022956874757789 0)
(1.0013225490625 -0.024650809250996 0)
(1.0016449010895 -0.026444558006881 0)
(1.0019994440299 -0.02826362847008 0)
(1.0024616969272 -0.030226133907255 0)
(1.0029405160553 -0.032158854873219 0)
(1.0035942496308 -0.034324136234799 0)
(1.0042122607044 -0.036328606150689 0)
(1.0051343039266 -0.038759051400681 0)
(1.0058854642833 -0.040731149240488 0)
(1.0072058763946 -0.043556899325195 0)
(1.0080547332093 -0.045282701484978 0)
(1.0100261570397 -0.048709177429255 0)
(1.0000001608069 -0.00053266339679255 0)
(0.99999987414242 -0.0016764138763881 0)
(0.99999820105026 -0.0028517002148836 0)
(0.99999481739014 -0.0040342061693084 0)
(0.99998961254126 -0.0052204498656869 0)
(0.99998297241634 -0.0064139176354795 0)
(0.99997547614508 -0.0076193321468409 0)
(0.99996835910916 -0.0088422042119225 0)
(0.99996271331422 -0.010087452889118 0)
(0.99996075672702 -0.011361186138672 0)
(0.99996400453589 -0.012667771753022 0)
(0.99997611911431 -0.014014315608807 0)
(0.99999863425004 -0.015403678248757 0)
(1.0000375382461 -0.016845219061272 0)
(1.0000933454146 -0.01833812896797 0)
(1.0001762325591 -0.019896993773181 0)
(1.0002832015398 -0.021512368519493 0)
(1.0004327012016 -0.023211084465643 0)
(1.0006124655156 -0.024963816994525 0)
(1.0008581856842 -0.026825953220143 0)
(1.0011353047787 -0.028722954314209 0)
(1.0015165226937 -0.030775982564865 0)
(1.0019159610968 -0.032808598543034 0)
(1.0024869527892 -0.035091483430425 0)
(1.0030280986873 -0.037220221976574 0)
(1.0038695199016 -0.039800949460754 0)
(1.0045536675834 -0.041923970742665 0)
(1.0058000189005 -0.044934337580539 0)
(1.0066015079364 -0.046837584030866 0)
(1.0085271649545 -0.050477971284203 0)
(1.0000001642812 -0.00053169770220603 0)
(0.99999588363299 -0.0016719200755107 0)
(0.99998618127859 -0.0028427063248244 0)
(0.99997051966899 -0.0040203545050856 0)
(0.99994866610167 -0.0052018939758114 0)
(0.99992094144355 -0.0063912519303752 0)
(0.999887998569 -0.0075935138983074 0)
(0.99985096179933 -0.008814596154354 0)
(0.9998109549599 -0.010059987982054 0)
(0.99977001110377 -0.011336178611924 0)
(0.99972984353734 -0.012648188490193 0)
(0.99969377397652 -0.014003444621013 0)
(0.99966379323482 -0.01540571002764 0)
(0.99964522471677 -0.016864491858338 0)
(0.99963957636158 -0.018380300510352 0)
(0.9996557450387 -0.019967515986132 0)
(0.99969275956885 -0.021618675443515 0)
(0.99976660340978 -0.023359827497816 0)
(0.99986888543008 -0.025164428161503 0)
(1.0000307029795 -0.027086620772503 0)
(1.0002245026065 -0.029054776052792 0)
(1.0005148064533 -0.031190073660916 0)
(1.0008277086467 -0.03331546271154 0)
(1.0013027270077 -0.035709791656869 0)
(1.0017582287887 -0.037952627833463 0)
(1.0025017642506 -0.040686161029197 0)
(1.0031105209812 -0.042940166814864 0)
(1.0042596167458 -0.046160960019822 0)
(1.0050228895275 -0.048208010500703 0)
(1.0068626490341 -0.052101056242856 0)
(1.0000001581047 -0.00052899030310606 0)
(0.99999202231933 -0.0016619691588303 0)
(0.99997442015895 -0.002824101501226 0)
(0.99994644105341 -0.0039924289360653 0)
(0.9999077177855 -0.0051646076963335 0)
(0.99985863974049 -0.0063452003584357 0)
(0.99979993281775 -0.0075391980523428 0)
(0.99973245273789 -0.008753093147871 0)
(0.99965738547111 -0.0099930628826977 0)
(0.99957658288337 -0.011265936498365 0)
(0.99949197107334 -0.012577447788295 0)
(0.99940639305482 -0.013935282382399 0)
(0.99932241280341 -0.015344306058227 0)
(0.99924437644499 -0.016813947859365 0)
(0.99917518365693 -0.018346556966735 0)
(0.99912162703861 -0.019955625698671 0)
(0.99908594647133 -0.021637005336914 0)
(0.99907955470623 -0.023414108500417 0)
(0.99910111950786 -0.025266417298414 0)
(0.99917191611204 -0.027242266200546 0)
(0.99927931819963 -0.02928016959414 0)
(0.99946736428147 -0.031491646323057 0)
(0.99969240296724 -0.033712336809091 0)
(1.0000528765081 -0.036214452115225 0)
(1.0004257862722 -0.038574355709365 0)
(1.0010397596231 -0.041472465542443 0)
(1.0015847135136 -0.043835196098086 0)
(1.0025826408858 -0.047350445281865 0)
(1.0033596002099 -0.049458060426289 0)
(1.005026854744 -0.053889231630826 0)
(1.000000108471 -0.0005253252471973 0)
(0.99998795279985 -0.0016491514863803 0)
(0.99996265256528 -0.0028011519205064 0)
(0.99992244039749 -0.003959139751384 0)
(0.99986660121639 -0.0051208753303319 0)
(0.99979616371137 -0.0062921604376064 0)
(0.99971191161771 -0.0074772143110528 0)
(0.99961383453734 -0.0086830964052805 0)
(0.99950332395886 -0.0099166077412262 0)
(0.99938218438568 -0.011185018779053 0)
(0.99925243647297 -0.012494944504397 0)
(0.9991164810295 -0.013854477563404 0)
(0.99897730176145 -0.015269832852954 0)
(0.99883835357153 -0.016750423275818 0)
(0.99870370163132 -0.018300986524453 0)
(0.99857811045861 -0.019933863908483 0)
(0.99846686819428 -0.021649609791606 0)