/*--------------------------------*- C++ -*----------------------------------*\
| =========                 |                                                 |
| \\      /  F ield         | OpenFOAM: The Open Source CFD Toolbox           |
|  \\    /   O peration     | Version:  v1912                                 |
|   \\  /    A nd           | Website:  www.openfoam.com                      |
|    \\/     M anipulation  |                                                 |
\*---------------------------------------------------------------------------*/
FoamFile
{
    version     2.0;
    format      ascii;
    class       volVectorField;
    location    "0";
    object      U;
}
// * * * * * * * * * * * * * * * * * * * * * * * * * * * * * * * * * * * * * //

dimensions      [0 1 -1 0 0 0 0];


internalField   nonuniform List<vector> 
22000
(
(1.0000002346969 -1.7685865059705e-05 0)
(1.0000172680857 -5.2111371322641e-05 0)
(1.0000510148196 -8.7646634827069e-05 0)
(1.0001018087968 -0.00012269727268411 0)
(1.0001703178594 -0.00015805082214877 0)
(1.0002562285597 -0.00019407186793279 0)
(1.0003590068564 -0.00022900095323204 0)
(1.0004793131495 -0.00026454343594 0)
(1.0006169793542 -0.00029969763389761 0)
(1.0007713336109 -0.0003344286032045 0)
(1.0009434111912 -0.00036938211481903 0)
(1.0011321503506 -0.000403622261636 0)
(1.0013373257599 -0.00043717217344996 0)
(1.0015596422094 -0.00047126178399031 0)
(1.0017977481248 -0.00050373663244018 0)
(1.0020515397573 -0.00053612520139483 0)
(1.0023214386725 -0.00056653435816109 0)
(1.0026058149779 -0.00059718863564522 0)
(1.0029046788378 -0.00062464996967498 0)
(1.0032177781038 -0.00065354517880192 0)
(1.0035429922176 -0.00067727106801452 0)
(1.0038816407691 -0.00070368937819643 0)
(1.0042308635649 -0.00072414516325377 0)
(1.0045915584938 -0.0007469652734824 0)
(1.0049609861097 -0.00076248581183594 0)
(1.0053409398127 -0.00078356778677958 0)
(1.0057261937645 -0.00079342007430507 0)
(1.0061218157637 -0.00081259426791275 0)
(1.0065192128132 -0.00081512957852348 0)
(1.0069258343522 -0.00083388321357465 0)
(1.000000120643 -5.1471204420321e-05 0)
(1.0000172617167 -0.00015418443835789 0)
(1.0000515253996 -0.00025780479891417 0)
(1.0001033572675 -0.00036311173068651 0)
(1.0001727606257 -0.00046777296431858 0)
(1.0002594595721 -0.00057309198362701 0)
(1.0003645581298 -0.00067750398935783 0)
(1.0004870713581 -0.00078260521603154 0)
(1.000627042319 -0.00088703965133656 0)
(1.0007851484615 -0.00099181179946285 0)
(1.0009603700129 -0.0010947907801136 0)
(1.0011535770132 -0.0011978797596885 0)
(1.0013637058401 -0.0012981677208321 0)
(1.0015915678903 -0.0013985519081501 0)
(1.0018359657261 -0.0014949498066599 0)
(1.0020970352493 -0.0015921234319253 0)
(1.0023733838169 -0.0016827041699463 0)
(1.0026671465152 -0.0017743565967316 0)
(1.0029739240158 -0.0018567927104152 0)
(1.003297855442 -0.0019429061244619 0)
(1.0036319190199 -0.0020155007843285 0)
(1.0039834738967 -0.002093816968617 0)
(1.0043420997025 -0.0021544448430643 0)
(1.0047181544545 -0.0022250347075766 0)
(1.0050977219898 -0.0022714643242902 0)
(1.0054949538518 -0.0023357098620613 0)
(1.0058897592135 -0.0023643233881925 0)
(1.0063058929341 -0.0024230176885786 0)
(1.0067120602722 -0.002431258276783 0)
(1.0071423824544 -0.0024882559123376 0)
(1.0000000849008 -8.4441279152287e-05 0)
(1.0000179019036 -0.00025325769880957 0)
(1.0000535391297 -0.00042319794896199 0)
(1.0001067249051 -0.00059560821804382 0)
(1.0001784346409 -0.00076788528711596 0)
(1.0002686154461 -0.00094065423544557 0)
(1.0003775579581 -0.0011135286656501 0)
(1.0005047533663 -0.0012868608769836 0)
(1.000650382469 -0.0014587123268811 0)
(1.000815029745 -0.0016317334196002 0)
(1.0009976758357 -0.0018023873627415 0)
(1.001199393848 -0.0019736967891482 0)
(1.0014187072946 -0.0021399331268841 0)
(1.0016578795237 -0.0023074923575246 0)
(1.0019124680668 -0.002467734158352 0)
(1.00218825465 -0.0026293108882197 0)
(1.0024777233594 -0.0027804873324524 0)
(1.0027878383265 -0.0029339695130568 0)
(1.0031103794462 -0.0030727659188591 0)
(1.0034536548439 -0.0032166980814367 0)
(1.0038057717454 -0.0033385462100254 0)
(1.0041802596348 -0.0034704193633159 0)
(1.0045578115102 -0.003572668881993 0)
(1.0049614449977 -0.0036927326878403 0)
(1.005359457819 -0.0037700973574867 0)
(1.0057890799239 -0.0038789311683037 0)
(1.0062025344437 -0.0039271546014521 0)
(1.0066559164988 -0.0040277927163252 0)
(1.0070786596193 -0.0040415984632261 0)
(1.0075531975769 -0.004139370681533 0)
(1.0000002368103 -0.00011643589426971 0)
(1.0000183825251 -0.00034924861095173 0)
(1.0000555201396 -0.00058533995871666 0)
(1.0001110993315 -0.00082334768972211 0)
(1.000186216665 -0.0010624333035756 0)
(1.0002805337628 -0.0013028749559257 0)
(1.0003940401899 -0.0015430895827892 0)
(1.0005278842669 -0.0017848564421434 0)
(1.0006801361394 -0.0020244268764802 0)
(1.0008538624131 -0.0022660023365616 0)
(1.0010461558153 -0.002504327806027 0)
(1.0012593822334 -0.0027438543452277 0)
(1.001491066327 -0.0029781798251209 0)
(1.0017451416977 -0.0032132089851665 0)
(1.0020155126385 -0.0034391295672917 0)
(1.0023099594366 -0.0036679182152238 0)
(1.0026174675913 -0.0038807001674937 0)
(1.0029508135044 -0.0040988930027353 0)
(1.0032945113132 -0.0042951078033277 0)
(1.0036655622674 -0.0045001176116001 0)
(1.00404074995 -0.0046736866046844 0)
(1.0044484351274 -0.0048627489628453 0)
(1.0048513802718 -0.0050079078677344 0)
(1.0052938544763 -0.0051803999526309 0)
(1.0057180116279 -0.0052913135231449 0)
(1.0061935286916 -0.0054496592589602 0)
(1.0066323541933 -0.0055183422578384 0)
(1.0071396847437 -0.0056666431455251 0)
(1.0075842354648 -0.0056840356076169 0)
(1.0081229990773 -0.0058298349712736 0)
(1.0000000692296 -0.00014791046516948 0)
(1.0000195068747 -0.00044404917240483 0)
(1.0000575142098 -0.00074516344230019 0)
(1.0001162717298 -0.0010487767900642 0)
(1.000194545068 -0.0013538386316497 0)
(1.0002934680827 -0.0016614462483995 0)
(1.0004125268252 -0.0019686236719715 0)
(1.000553671285 -0.0022793729849106 0)
(1.0007140938062 -0.0025872420507576 0)
(1.0008983180139 -0.0028993851059591 0)
(1.0011014353216 -0.0032061858131173 0)
(1.0013293659982 -0.0035171986368698 0)
(1.001575483111 -0.0038199234135154 0)
(1.001847487662 -0.004125757536845 0)
(1.002136401091 -0.0044190053267629 0)
(1.0024529401809 -0.004717581790426 0)
(1.0027830268557 -0.0049960707261242 0)
(1.003144011904 -0.0052824261649734 0)
(1.0035131834876 -0.0055402034141024 0)
(1.0039183365447 -0.0058098807692117 0)
(1.0043223464056 -0.0060381199875833 0)
(1.0047707844706 -0.0062898300598918 0)
(1.0052046144524 -0.0064822874237322 0)
(1.0056958111554 -0.0067132976991036 0)
(1.0061521777426 -0.0068599877788061 0)
(1.0066851915578 -0.0070739474159512 0)
(1.0071548690358 -0.0071643761486588 0)
(1.007731049652 -0.0073674876832348 0)
(1.0082033118885 -0.0073886488834583 0)
(1.008823480714 -0.0075915116108538 0)
(1.0000000666266 -0.00017881672233454 0)
(1.0000201990935 -0.00053806060288392 0)
(1.0000600915802 -0.00090203916623569 0)
(1.0001211429073 -0.0012708993956443 0)
(1.0002026547649 -0.0016422472004036 0)
(1.0003069375736 -0.002016921912695 0)
(1.0004315927648 -0.0023920354044195 0)
(1.0005803995407 -0.0027718127530157 0)
(1.0007501014689 -0.0031495656547756 0)
(1.0009450488861 -0.0035328756942507 0)
(1.0011601706272 -0.003911077392086 0)
(1.0014032267071 -0.0042945143897864 0)
(1.001665027794 -0.0046692934903917 0)
(1.0019570442225 -0.0050492404732758 0)
(1.002265763611 -0.0054137636507207 0)
(1.0026080254876 -0.0057861310786764 0)
(1.0029623956756 -0.006133230811025 0)
(1.0033557089608 -0.0064923341996269 0)
(1.0037525767732 -0.0068151162974808 0)
(1.0041976374182 -0.0071560120481061 0)
(1.0046336151758 -0.0074440669274425 0)
(1.0051300072059 -0.007764193212068 0)
(1.0055991767235 -0.0080069944543026 0)
(1.0061469904172 -0.0083048691024449 0)
(1.0066404029311 -0.0084895240608918 0)
(1.0072421511788 -0.008769153965641 0)
(1.0077478015392 -0.0088826290211048 0)
(1.008405646736 -0.0091503013180735 0)
(1.0089095991063 -0.0091749048927848 0)
(1.0096276129842 -0.0094454515204384 0)
(1.0000000322844 -0.00020900457763324 0)
(1.0000208898861 -0.00062990173693855 0)
(1.0000622450213 -0.0010563825050469 0)
(1.0001261404345 -0.0014900103467046 0)
(1.0002107965352 -0.0019262527515246 0)
(1.0003194083311 -0.0023679502707605 0)
(1.0004499472674 -0.0028119527749642 0)
(1.0006064904929 -0.0032614569570461 0)
(1.0007842092009 -0.0037109012283125 0)
(1.0009908323448 -0.0041668123748306 0)
(1.0012179151858 -0.0046177513399654 0)
(1.001477041279 -0.0050764778766907 0)
(1.0017546909464 -0.0055253802591956 0)
(1.0020680312088 -0.0059832090921224 0)
(1.0023975453694 -0.0064221139482687 0)
(1.0027666869691 -0.006872511402246 0)
(1.0031463998744 -0.0072928500916917 0)
(1.0035742516028 -0.0077307612465196 0)
(1.0040018442476 -0.0081237094594235 0)
(1.0044890826146 -0.0085424191032726 0)
(1.0049600797736 -0.0088943582899395 0)
(1.0055089518752 -0.0092903285461362 0)
(1.0060164214536 -0.0095888730423432 0)
(1.0066281968613 -0.0099616631397547 0)
(1.0071623731654 -0.010189782200264 0)
(1.007840818176 -0.010543651282235 0)
(1.0083857702187 -0.010683859432389 0)
(1.0091371026711 -0.011026951861744 0)
(1.0096776720264 -0.011055782674912 0)
(1.0105076743971 -0.011407784267857 0)
(0.99999993312049 -0.0002382549944962 0)
(1.0000215204087 -0.00071953240033436 0)
(1.0000640728739 -0.0012075217777835 0)
(1.0001296695488 -0.0017046645464932 0)
(1.0002172029522 -0.0022050712020034 0)
(1.0003303856465 -0.0027142391542565 0)
(1.0004655514285 -0.0032257998658646 0)
(1.0006289871757 -0.0037467202084499 0)
(1.0008148869 -0.0042669298061737 0)
(1.0010315507861 -0.0047976220853534 0)
(1.0012703209797 -0.0053240944770331 0)
(1.0015440468535 -0.0058602950125931 0)
(1.0018379879611 -0.0063861298501039 0)
(1.0021718392506 -0.0069247901652819 0)
(1.0025212509931 -0.0074415759544868 0)
(1.0029184394716 -0.0079745184591675 0)
(1.0033240161966 -0.0084734161938922 0)
(1.0037869503777 -0.0089949397862864 0)
(1.0042454197947 -0.0094620882691454 0)
(1.0047777969867 -0.0099659695920434 0)
(1.0052853805988 -0.010387626286217 0)
(1.0058894185505 -0.010868957041936 0)
(1.0064378302416 -0.011228133594188 0)
(1.0071181048621 -0.011685562588367 0)
(1.0076952127017 -0.011961766385099 0)
(1.0084580442059 -0.012400291583946 0)
(1.009045927345 -0.012571179442468 0)
(1.0098994174638 -0.013003238294988 0)
(1.0104788958481 -0.01303728623985 0)
(1.0114356885671 -0.013487209673302 0)
(0.99999997680383 -0.00026639706975453 0)
(1.0000216781433 -0.00080617964657344 0)
(1.0000649331144 -0.0013535161835023 0)
(1.0001320129876 -0.0019127284452846 0)
(1.0002215179175 -0.0024766454737954 0)
(1.0003382688385 -0.0030516426817939 0)
(1.0004768526019 -0.0036313094477069 0)
(1.000646414625 -0.0042227238070177 0)
(1.0008384255228 -0.0048149286962465 0)
(1.0010646058423 -0.0054213696146873 0)
(1.0013133123076 -0.006023341238599 0)
(1.0016005903622 -0.0066400058782855 0)
(1.0019089033571 -0.0072456942540006 0)
(1.0022620880439 -0.0078674689687406 0)
(1.0026310664048 -0.0084663299456859 0)
(1.0030542156635 -0.0090866923962738 0)
(1.0034848422824 -0.0096679008734903 0)
(1.0039820730182 -0.010278916445092 0)
(1.0044731252601 -0.010827259941364 0)
(1.0050481910417 -0.011421837711935 0)
(1.0055950398092 -0.011920097399737 0)
(1.0062524376551 -0.012492953395329 0)
(1.0068470326629 -0.012920428743754 0)
(1.0075926833715 -0.013469756421222 0)
(1.0082231518674 -0.013804733167879 0)
(1.0090634473629 -0.014334543037504 0)
(1.0097115806429 -0.014547625721735 0)
(1.0106560458952 -0.015072605963769 0)
(1.0113014675045 -0.015128681661702 0)
(1.0123777212095 -0.015684236536428 0)
(0.99999978478167 -0.00029299204774153 0)
(1.0000220977717 -0.0008886470769493 0)
(1.0000654292112 -0.0014936452214018 0)
(1.0001331365509 -0.0021116700779698 0)
(1.0002236697373 -0.0027376476789913 0)
(1.000341560805 -0.0033781965384594 0)
(1.000483222291 -0.0040238342663064 0)
(1.0006559563839 -0.0046859820285888 0)
(1.0008533001886 -0.0053498608453465 0)
(1.0010863952823 -0.0060320333462645 0)
(1.0013436646073 -0.0067116847290185 0)
(1.001641900136 -0.0074092503348005 0)
(1.0019626233049 -0.0080965612808943 0)
(1.0023321112697 -0.0088043977043664 0)
(1.0027191192629 -0.0094887703426764 0)
(1.0031653828769 -0.01019935259751 0)
(1.0036204908722 -0.010867199985389 0)
(1.0041481341724 -0.011572759009739 0)
(1.0046710023775 -0.012208237731108 0)
(1.0052859520999 -0.012899619629123 0)
(1.0058731628157 -0.013481199962893 0)
(1.0065802355268 -0.014152645265356 0)
(1.0072249503655 -0.014658737951669 0)
(1.0080317263084 -0.0153078953994 0)
(1.0087211133587 -0.015709515578983 0)
(1.0096361856626 -0.016340719025926 0)
(1.0103523178758 -0.016605991280384 0)
(1.0113859247499 -0.017233480550713 0)
(1.0121057206405 -0.017321846561233 0)
(1.0133052788587 -0.017997216840152 0)
(0.99999987350761 -0.00031828169886071 0)
(1.0000216924786 -0.00096626624392772 0)
(1.0000642079605 -0.001625937685465 0)
(1.0001320438784 -0.0023012424098026 0)
(1.0002224413537 -0.0029860692474619 0)
(1.0003406435692 -0.0036886273730208 0)
(1.0004830953113 -0.0044002895255166 0)
(1.0006577855618 -0.0051302598927945 0)
(1.0008575134316 -0.0058665766337158 0)
(1.0010944040959 -0.0066239556074974 0)
(1.0013574292429 -0.0073802181245352 0)
(1.0016631219019 -0.0081600161863936 0)
(1.0019939717744 -0.0089299546683811 0)
(1.002376105179 -0.0097266395099471 0)
(1.0027781174844 -0.010498329366588 0)
(1.0032433912158 -0.011303748268568 0)
(1.0037201510767 -0.012061773290699 0)
(1.0042749501826 -0.012866871732514 0)
(1.0048270176686 -0.01359312367246 0)
(1.0054781248513 -0.014388293742645 0)
(1.006103335445 -0.01506014407741 0)
(1.0068587890148 -0.015837943974993 0)
(1.0075506520519 -0.016428794686443 0)
(1.0084181500619 -0.017188003677713 0)
(1.009165547659 -0.017665017643535 0)
(1.010155539346 -0.018409093687469 0)
(1.0109395355326 -0.018734920760707 0)
(1.012064588881 -0.019477180998471 0)
(1.012861239423 -0.019607800302435 0)
(1.0141893112778 -0.02041877027156 0)
(0.99999974956269 -0.00034158168747553 0)
(1.0000211646727 -0.0010381291251171 0)
(1.0000629317018 -0.0017481401574442 0)
(1.0001289674524 -0.0024774195070736 0)
(1.0002172173134 -0.0032194658692887 0)
(1.000334342881 -0.0039814912958215 0)
(1.0004753225236 -0.0047550792407778 0)
(1.0006490570606 -0.0055521159810421 0)
(1.0008488627194 -0.0063580405815206 0)
(1.0010866614853 -0.0071899791182979 0)
(1.0013517841075 -0.0080236148955863 0)
(1.0016620300632 -0.0088850652459592 0)
(1.0019984983927 -0.0097384586356951 0)
(1.0023895135045 -0.010624307162696 0)
(1.0028026824087 -0.011484907094973 0)
(1.0032825032296 -0.012386697853636 0)
(1.0037759488838 -0.013238422874585 0)
(1.0043535512146 -0.014146723437473 0)
(1.0049301548771 -0.014969744136779 0)
(1.0056137441823 -0.015873480070291 0)
(1.0062730243808 -0.016641472008961 0)
(1.0070716323125 -0.017533449337664 0)
(1.0078079396899 -0.018216981348173 0)
(1.0087323757118 -0.019094313977637 0)
(1.0095355389678 -0.019655887637194 0)
(1.0105979775111 -0.020523647841092 0)
(1.011449478213 -0.020920912283249 0)
(1.0126646959416 -0.021791180631596 0)
(1.0135401628941 -0.02197391097598 0)
(1.0149988078248 -0.022938605259087 0)
(0.99999967698951 -0.00036243715311021 0)
(1.0000202660514 -0.0011043287695974 0)
(1.0000596990027 -0.0018606595904089 0)
(1.0001237706816 -0.0026393011116344 0)
(1.0002090723136 -0.0034332536937841 0)
(1.0003219811853 -0.0042522833995348 0)
(1.0004588400213 -0.0050855284108868 0)
(1.0006294769511 -0.0059471022031434 0)
(1.0008259643255 -0.0068201676966136 0)
(1.001061894747 -0.0077236695107577 0)
(1.001324541047 -0.0086322286538046 0)
(1.0016358592191 -0.0095758092719076 0)
(1.001973144 -0.010512149990289 0)
(1.0023684012476 -0.011487654994874 0)
(1.0027866718569 -0.012438074164827 0)
(1.0032764839495 -0.013438244734925 0)
(1.0037823164896 -0.014385786724996 0)
(1.0043763134492 -0.015400039953057 0)
(1.004972365081 -0.016323137301623 0)
(1.0056818145366 -0.017341284416331 0)
(1.0063696260658 -0.018210613071739 0)
(1.0072055098647 -0.019224081725119 0)
(1.0079820000949 -0.020005985099219 0)
(1.0089574999296 -0.021011151893298 0)
(1.0098131702514 -0.021666934921308 0)
(1.0109429186128 -0.022667513733918 0)
(1.0118602371794 -0.023146815242092 0)
(1.0131621806341 -0.02415859685873 0)
(1.0141154128024 -0.024405393250636 0)
(1.0157042692731 -0.025540519428757 0)
(0.999999833895 -0.00038121622742808 0)
(1.0000184940858 -0.0011624500173367 0)
(1.0000553472786 -0.0019613126109211 0)
(1.0001153645392 -0.0027849480960102 0)
(1.00019565936 -0.0036269972848333 0)
(1.0003037096317 -0.0044979628477252 0)
(1.0004344541109 -0.0053873017755203 0)
(1.0005984082855 -0.0063095048649546 0)
(1.0007881597337 -0.0072465689529942 0)
(1.0010186849474 -0.0082203929923124 0)
(1.0012755678155 -0.0092020759241435 0)
(1.0015825593275 -0.010225005906644 0)
(1.0019160179642 -0.011242372582143 0)
(1.0023101236551 -0.012306972739326 0)
(1.0027285813209 -0.013347244629782 0)
(1.0032220338781 -0.014446348305967 0)
(1.0037324877474 -0.015491672381062 0)
(1.0043373177846 -0.01661379285266 0)
(1.0049463453142 -0.017638861316104 0)
(1.0056748490308 -0.018774454472205 0)
(1.006384102601 -0.019749882939218 0)
(1.0072505148157 -0.020889920912272 0)
(1.0080594931954 -0.0217789961026 0)
(1.009079447829 -0.022919659121027 0)
(1.0099808627918 -0.023677305943459 0)
(1.0111727347696 -0.024822530030571 0)
(1.0121496061507 -0.025394174302638 0)
(1.0135351740197 -0.026559269475453 0)
(1.0145623631827 -0.026884005341207 0)
(1.0162776114112 -0.028206073855169 0)
(0.99999960312967 -0.00039728535811043 0)
(1.0000169126136 -0.0012127079858186 0)
(1.0000501384548 -0.0020486001239326 0)
(1.0001047956141 -0.0029127769672462 0)
(1.0001785164431 -0.0037981085191739 0)
(1.0002790436077 -0.0047172086857247 0)
(1.0004010104417 -0.0056576057992205 0)
(1.0005559347793 -0.0066366870820499 0)
(1.0007360216518 -0.0076343415675086 0)
(1.0009563746088 -0.0086745680098374 0)
(1.0012036307055 -0.0097261906640883 0)
(1.0015013225324 -0.01082497570964 0)
(1.0018261276226 -0.011921815385559 0)
(1.0022132614699 -0.01307406000205 0)
(1.0026263311538 -0.014203096743063 0)
(1.0031159586026 -0.015400204621615 0)
(1.0036256307266 -0.016542506856261 0)
(1.0042328533569 -0.017774477337524 0)
(1.004846369185 -0.018903773124186 0)
(1.0055859208304 -0.020160080270402 0)
(1.0063095770918 -0.021244732066565 0)
(1.007197613086 -0.022516429602351 0)
(1.0080315818084 -0.023516929873262 0)
(1.009087159021 -0.024799587117974 0)
(1.010026819013 -0.025668196127558 0)
(1.0112713636332 -0.026966808349217 0)
(1.0123019438772 -0.027643071360842 0)
(1.0137629553201 -0.028972325805723 0)
(1.0148589197676 -0.029388244111509 0)
(1.0166951823069 -0.030914217487337 0)
(0.9999997880454 -0.00041020681491264 0)
(1.0000141155801 -0.0012556819433639 0)
(1.0000434259733 -0.0021222985148002 0)
(1.0000920815273 -0.0030219124952379 0)
(1.0001575405264 -0.0039457274486175 0)
(1.0002484536649 -0.0049075526039236 0)
(1.0003593532943 -0.0058951830247509 0)
(1.0005026270615 -0.0069259037808776 0)
(1.0006691745016 -0.0079793200690769 0)
(1.0008760700005 -0.0090820531165754 0)
(1.0011092734565 -0.010199279039533 0)
(1.0013925050119 -0.011371411878387 0)
(1.0017035849591 -0.012544657192113 0)
(1.0020779327149 -0.013780786517718 0)
(1.0024778257516 -0.014997368968569 0)
(1.0029582490507 -0.016290011162626 0)
(1.0034583519402 -0.017528881044841 0)
(1.0040607829095 -0.018869443955971 0)
(1.0046708138804 -0.020104706091175 0)
(1.0054131183569 -0.021481941268055 0)
(1.0061404596714 -0.022679396757563 0)
(1.0070410026104 -0.024084348743277 0)
(1.0078903572514 -0.025203123672829 0)
(1.0089716049052 -0.02663293938874 0)
(1.009939452625 -0.027619705060912 0)
(1.0112284452228 -0.029080096322342 0)
(1.0123023160786 -0.029870162055863 0)
(1.0138302009272 -0.031375969510411 0)
(1.0149876725467 -0.031896275612523 0)
(1.0169351139537 -0.033640621178655 0)
(0.99999958603193 -0.00042047839088927 0)
(1.0000120061957 -0.0012893262336346 0)
(1.0000353395443 -0.002182509766379 0)
(1.0000773785528 -0.0031111859901663 0)
(1.0001327734213 -0.0040686159345424 0)
(1.00021271761 -0.0050679647146931 0)
(1.0003101365217 -0.0060973659547658 0)
(1.0004386481205 -0.0071750576251961 0)
(1.0005883615943 -0.0082800805593542 0)
(1.0007782711021 -0.0094393252230231 0)
(1.0009926264563 -0.010618250186184 0)
(1.0012573651251 -0.011859014968744 0)
(1.0015489906887 -0.01310530105006 0)
(1.0019046323195 -0.014422071199533 0)
(1.0022858523554 -0.015721806241711 0)
(1.0027491200868 -0.017108284491837 0)
(1.0032332062756 -0.01844167374284 0)
(1.0038220432224 -0.01988843698522 0)
(1.0044199183803 -0.02122914627827 0)
(1.0051545621049 -0.0227271595642 0)
(1.0058769105187 -0.024038485014695 0)
(1.0067792405316 -0.025580006966202 0)
(1.0076327040963 -0.026819242212262 0)
(1.008728583502 -0.028400810197462 0)
(1.0097141406592 -0.029512490970752 0)
(1.0110346488645 -0.031140342173874 0)
(1.0121413377455 -0.032055660968373 0)
(1.0137251467974 -0.033746944683951 0)
(1.0149339739585 -0.034384849696261 0)
(1.0169798360745 -0.036361079240684 0)
(0.99999963055885 -0.0004282605515843 0)
(1.0000088734602 -0.0013148918889844 0)
(1.0000272558274 -0.0022289462873665 0)
(1.0000600344248 -0.0031821263521372 0)
(1.0001053006202 -0.0041669186795659 0)
(1.0001717579142 -0.0051982263967612 0)
(1.0002532456784 -0.0062634917559111 0)
(1.0003648293801 -0.007382857910926 0)
(1.0004950075454 -0.0085339807686576 0)
(1.0006640177126 -0.0097455386595759 0)
(1.0008557744208 -0.010981353371427 0)
(1.0010981131677 -0.012285358930658 0)
(1.0013651742462 -0.013598799946755 0)
(1.0016961196267 -0.014992336541064 0)
(1.0020525089808 -0.016371872104306 0)
(1.0024917266629 -0.017847932983583 0)
(1.0029509239321 -0.019272840826332 0)
(1.0035181658579 -0.020824220605926 0)
(1.0040950806141 -0.022267893076263 0)
(1.0048123844598 -0.023884948682775 0)
(1.0055191970282 -0.02531034359901 0)
(1.0064123014961 -0.026987499367027 0)
(1.0072582165532 -0.028350915774945 0)
(1.0083575364192 -0.030085750871974 0)
(1.0093465683703 -0.031327888398804 0)
(1.0106875102594 -0.033128483440042 0)
(1.0118135639894 -0.034177094318874 0)
(1.0134412387081 -0.036062931204018 0)
(1.0146885110934 -0.036830902140713 0)
(1.0168183359961 -0.039048458884024 0)
(0.9999991375125 -0.00043304260676386 0)
(1.0000058145443 -0.0013326077218598 0)
(1.000017378737 -0.0022612034627629 0)
(1.000041373274 -0.0032327689701168 0)
(1.0000745087134 -0.0042402890979753 0)
(1.0001263574383 -0.005298903967859 0)
(1.0001904544176 -0.0063945754884018 0)
(1.0002823412164 -0.0075499053239299 0)
(1.0003905830642 -0.0087413617583581 0)
(1.0005357042215 -0.0099991461617835 0)
(1.0007016258745 -0.011286136972666 0)
(1.0009162896106 -0.012648610780391 0)
(1.0011536339774 -0.014025169776655 0)
(1.001455519344 -0.015489091751751 0)
(1.0017798467741 -0.01694343178906 0)
(1.0021885355569 -0.018504564992092 0)
(1.0026164813268 -0.020016312604993 0)
(1.0031533957921 -0.021667601399144 0)
(1.0036996091579 -0.023211454756535 0)
(1.0043910338352 -0.024945205256002 0)
(1.0050702468123 -0.026483840891789 0)
(1.0059445756666 -0.028295154318391 0)
(1.0067697155603 -0.029782738932602 0)
(1.0078595213103 -0.031672173347874 0)
(1.0088388342829 -0.033048787910856 0)
(1.01018672108 -0.035025901773123 0)
(1.0113172227011 -0.036215923524604 0)
(1.0129747780355 -0.038302072100486 0)
(1.0142465050773 -0.039211093386416 0)
(1.0164426292678 -0.041679044492833 0)
(0.9999992263266 -0.00043514275870303 0)
(1.0000021864071 -0.001341760470458 0)
(1.0000068620365 -0.0022806155108212 0)
(1.0000218304133 -0.0032659431644574 0)
(1.0000413412373 -0.0042899326367455 0)
(1.0000771314832 -0.0053689851582139 0)
(1.0001225504808 -0.0064903775066953 0)
(1.0001930654622 -0.0076762180309913 0)
(1.0002767075522 -0.0089024634535089 0)
(1.000395091366 -0.010201765085247 0)
(1.0005313588865 -0.011533639488271 0)
(1.0007146419144 -0.012948416199792 0)
(1.0009188974641 -0.014381500160503 0)
(1.0011855757376 -0.015911446032432 0)
(1.0014736361719 -0.017434207980694 0)
(1.0018444928473 -0.019075459536201 0)
(1.0022334795357 -0.020669118676737 0)
(1.0027325356216 -0.022416168561458 0)
(1.0032401536927 -0.024055862245747 0)
(1.0038947057784 -0.025902107688312 0)
(1.0045373609323 -0.027550747906216 0)
(1.0053795052983 -0.029493739026112 0)
(1.0061728057382 -0.031104980361551 0)
(1.0072405806933 -0.033146994010039 0)
(1.0081951983732 -0.034660228318985 0)
(1.0095362682587 -0.036815691331983 0)
(1.0106541552156 -0.03815210211205 0)
(1.012326970725 -0.040445956140507 0)
(1.0136074538605 -0.041506730917378 0)
(1.0158486959737 -0.044230841054767 0)
(0.99999913301529 -0.00043483051071787 0)
(0.999998756485 -0.0013438954585066 0)
(0.99999674629612 -0.0022875466316347 0)
(1.000000784397 -0.0032808188845606 0)
(1.0000064812529 -0.0043165231012043 0)
(1.0000255719972 -0.0054120798928885 0)
(1.0000512450642 -0.0065533621771448 0)
(1.0000975153085 -0.0077633666649248 0)
(1.0001551992767 -0.0090184486068416 0)
(1.0002441514328 -0.010352842776845 0)
(1.0003483007279 -0.011724240091545 0)
(1.0004968954394 -0.013185586913057 0)
(1.0006635374105 -0.014669657653598 0)
(1.0008905300477 -0.016258575085766 0)
(1.0011373777794 -0.017844605245186 0)
(1.0014647608342 -0.019559025328448 0)
(1.0018095479405 -0.021229496916076 0)
(1.0022624241749 -0.023065828981377 0)
(1.0027235022008 -0.02479579796268 0)
(1.0033307832186 -0.02674984115059 0)
(1.0039282723411 -0.028503244500416 0)
(1.0047254499043 -0.030575833791929 0)
(1.0054766998353 -0.032305801097275 0)
(1.0065053603227 -0.034501874787096 0)
(1.0074258521613 -0.036148016440264 0)
(1.0087371572408 -0.0384841388485 0)
(1.0098340802503 -0.039966658426115 0)
(1.0114955892301 -0.042476660447951 0)
(1.012776974608 -0.043691771438578 0)
(1.0150303840384 -0.04667782114491 0)
(0.99999922320631 -0.00043235491654919 0)
(0.99999487076946 -0.0013389797732135 0)
(0.99998577811193 -0.0022829274389579 0)
(0.99997824799914 -0.0032795363543057 0)
(0.99997057023653 -0.0043219640736757 0)
(0.99997103814754 -0.0054277003221813 0)
(0.99997573823241 -0.0065837571336139 0)
(0.99999739017947 -0.0078131302165599 0)
(1.0000279135863 -0.0090920906567273 0)
(1.0000851407099 -0.010455137356508 0)
(1.0001559602363 -0.01185987721224 0)
(1.0002657846208 -0.013361286288282 0)
(1.000393420434 -0.014890606205365 0)
(1.0005754922213 -0.016531569298595 0)
(1.0007779063733 -0.018174750647163 0)
(1.0010539512549 -0.019955326002515 0)
(1.0013504652066 -0.021696233241748 0)
(1.0017471564922 -0.023614305938391 0)
(1.0021584963177 -0.025428351619513 0)
(1.0027065046746 -0.027484045107869 0)
(1.0032532611058 -0.02933689425585 0)
(1.0039897015083 -0.031532221613152 0)
(1.0046937757193 -0.03337609231994 0)
(1.0056633640625 -0.035721434051186 0)
(1.006542372556 -0.03749557159479 0)
(1.0078031223037 -0.040012018478144 0)
(1.0088670059497 -0.041635436758548 0)
(1.0104918443178 -0.044359984562675 0)
(1.0117570607111 -0.045732560271011 0)
(1.0140056796081 -0.048978910380877 0)
(0.99999925768505 -0.00042798032875887 0)
(0.99999095589434 -0.0013272806654284 0)
(0.99997445608848 -0.0022669760205322 0)
(0.99995646394611 -0.0032626220971151 0)
(0.99993410599419 -0.0043072359846393 0)
(0.99991580831884 -0.0054189093555244 0)
(0.99989951553132 -0.0065847800912026 0)
(0.99989472872738 -0.0078274228272231 0)
(0.99989749048848 -0.009124798236064 0)
(0.99991976590435 -0.010510158286278 0)
(0.99995708811149 -0.011943366753293 0)
(1.0000242500271 -0.013477474413336 0)
(1.0001127877465 -0.01504534000814 0)
(1.0002431213117 -0.016730943761451 0)
(1.0004013740719 -0.018425688510591 0)
(1.000617943906 -0.020263275092932 0)
(1.0008670303224 -0.022069196666302 0)
(1.0011949289976 -0.024060200300299 0)
(1.0015580458925 -0.025953298955723 0)
(1.0020278714758 -0.028100538860787 0)
(1.0025304310055 -0.030045542486933 0)
(1.0031787167235 -0.032356394627882 0)
(1.0038458204219 -0.034306030808618 0)
(1.0047205973019 -0.03679643593825 0)
(1.0055755556087 -0.038685694899881 0)
(1.0067368042261 -0.041383925205741 0)
(1.0077928990016 -0.043125886157488 0)
(1.0093196192906 -0.046072921679688 0)
(1.0105923389593 -0.047568618188944 0)
(1.0127800789772 -0.051101713685767 0)
(0.99999976391719 -0.0004218785112096 0)
(0.99998711852515 -0.0013109777424735 0)
(0.99996450639334 -0.0022431212340356 0)
(0.99993450782504 -0.0032325109424499 0)
(0.99989889080222 -0.0042751579593403 0)
(0.99986045575824 -0.0053877917369596 0)
(0.99982370261077 -0.0065582274793895 0)
(0.99979078305982 -0.0078088320416915 0)
(0.99976634329827 -0.009118957493788 0)
(0.99975189804545 -0.010520130844188 0)
(0.99975505193214 -0.01197668632522 0)
(0.99977671154495 -0.01353641754597 0)
(0.99982515243231 -0.015137820081062 0)
(0.99990042927259 -0.016859011552648 0)
(1.0000145071263 -0.018599987835862 0)
(1.0001639083401 -0.020485061545535 0)
(1.0003668454235 -0.022352406564274 0)
(1.0006144048851 -0.024405348122563 0)
(1.0009336360652 -0.026375479676739 0)
(1.0013061473435 -0.02860191600375 0)
(1.0017740888966 -0.030641958075439 0)
(1.0023056933141 -0.033055226667539 0)
(1.0029553761065 -0.035114279949966 0)
(1.0036902239564 -0.037741506236543 0)
(1.0045521435979 -0.039752515148613 0)
(1.0055533581658 -0.042635289597623 0)
(1.006649338779 -0.044506386947159 0)
(1.007997628064 -0.047703528100785 0)
(1.0093639912785 -0.049302387765911 0)
(1.0113238633999 -0.05334908814038 0)
(0.99999981431256 -0.00041538633605321 0)
(0.99998380503682 -0.0012929698929387 0)
(0.99995443504494 -0.0022173789236095 0)
(0.99991264144752 -0.0032011557485652 0)
(0.99986281471357 -0.0042420140884773 0)
(0.99980411489352 -0.0053550855941168 0)
(0.99974570129124 -0.0065334467908368 0)
(0.99968530491255 -0.0077925865485118 0)
(0.99963097764229 -0.0091176032411989 0)
(0.99958054550994 -0.010535055752017 0)
(0.9995470216993 -0.012017589842902 0)
(0.99952260431965 -0.013602548234189 0)
(0.99952759898848 -0.015243521280167 0)
(0.99954706236981 -0.01700114954401 0)
(0.9996109093063 -0.018797656980429 0)
(0.9996933060078 -0.020731919535559 0)
(0.99984177515571 -0.022674831262975 0)