/*--------------------------------*- C++ -*----------------------------------*\
| =========                 |                                                 |
| \\      /  F ield         | OpenFOAM: The Open Source CFD Toolbox           |
|  \\    /   O peration     | Version:  4.1                                   |
|   \\  /    A nd           | Web:      www.OpenFOAM.org                      |
|    \\/     M anipulation  |                                                 |
\*---------------------------------------------------------------------------*/
FoamFile
{
    version     2.0;
    format      ascii;
    class       volScalarField;
    location    "0";
    object      p;
}
// * * * * * * * * * * * * * * * * * * * * * * * * * * * * * * * * * * * * * //

dimensions      [0 2 -2 0 0 0 0];

internalField   nonuniform List<scalar> 
47927
(
0.202922692852
0.203498376724
0.206678320888
0.211988091471
0.219709923349
0.229214468649
0.240763107094
0.253263386038
0.266592153597
0.27917774251
0.290401713029
0.298726282057
0.30328251503
0.303712098097
0.29986941189
0.292747241973
0.28296257369
0.272180627662
0.260897144085
0.250407420483
0.240986663484
0.233288980793
0.227488790114
0.223739585772
0.222107734329
0.221517178287
0.218632726462
0.213657829803
0.205947748624
0.195994945673
0.182969073983
0.167573694884
0.148988923936
0.12828440484
0.104923923964
0.0804004407873
0.054780447254
0.0297344200796
0.00577103978968
-0.0153861749076
-0.0331673118429
-0.0463352829322
-0.0549344448611
-0.0588721455328
-0.0584290619272
-0.0544356279635
-0.0470621496568
-0.0372019102712
-0.0245868098927
-0.0102313538775
0.00609134050784
0.0229317552401
0.0402926651774
0.05654384497
0.0717851406482
0.0848894645349
0.0961549023288
0.105175200676
0.11235873003
0.117640423797
0.121307489571
0.123452463449
0.124161589988
0.123574401747
0.121649526321
0.118613568867
0.114224485867
0.108678367413
0.101623533655
0.0931841461859
0.0830152712275
0.0716803168958
0.0588463663811
0.0455401891924
0.0314159636467
0.0173439245778
0.00183279582061
0.00305379693628
0.0024030562451
0.00312019782314
0.00226638694737
0.00275061219012
0.00119108469568
-0.000808872030267
-0.00646059444535
-0.0210607299687
-0.0289363805149
-0.0466399943468
-0.0289989006182
-0.0251269336255
-0.00785614106932
-0.00226036159919
0.00430735168452
0.0163401793666
0.0162173531489
0.0219647629773
0.0152876010631
0.0157963158656
0.010396985044
0.0130529971408
0.00976920798317
0.0356291611806
0.0771035252042
0.106513661765
0.127320933422
0.141471742406
0.150716495506
0.156189219558
0.158868152275
0.159341929226
0.158080496822
0.155519352921
0.15182153596
0.147303939443
0.141902692039
0.135874122003
0.129114779523
0.121890520173
0.113947391874
0.10552086596
0.0962357943218
0.0862529134592
0.0751668413341
0.0633231545718
0.050438756561
0.0372658139552
0.0239088768309
0.0114423676442
0.000211355233721
-0.00896657108899
-0.0161939299783
-0.0213180434011
-0.0247387693286
-0.0265589735628
-0.0265709137118
-0.0244948856268
-0.0195150818882
-0.011490621813
0.000379215926138
0.0153859098634
0.033845829878
0.0540873955878
0.0759476394145
0.0975642024883
0.118628206355
0.137740443769
0.154898154703
0.169297658327
0.181236936467
0.1904091038
0.197012419552
0.201137457162
0.142840689785
0.144056850652
0.145366577082
0.147229339759
0.14906895485
0.150908331319
0.152809977063
0.155304163043
0.15694970443
0.157606184312
0.157996288815
0.15866407242
0.157164376064
0.152592161113
0.147686605094
0.140919867916
0.131395121418
0.116554136891
0.101189071965
0.0816227020845
0.06189178213
0.0369297370778
0.0140195387085
-0.0128186062795
-0.0345916476537
-0.0569248876388
-0.0755494647094
-0.094763178529
-0.105588075849
-0.111319994978
-0.114273093148
-0.115276887538
-0.111651614666
-0.104764137192
-0.0991498400791
-0.0935887524806
-0.0899799519271
-0.0888016480045
-0.0906427240743
-0.096352248605
-0.105474515966
-0.12066724036
-0.137692820784
-0.161307656047
-0.183250613628
-0.20726610813
-0.229311057124
-0.254539675265
-0.267741621047
-0.270628347228
-0.269270203774
-0.26356916865
-0.2467424269
-0.217839239245
-0.193336865495
-0.167181030987
-0.144242438242
-0.120008097771
-0.1030521028
-0.0874863510219
-0.0742509845563
-0.0571485696751
-0.0418923201105
-0.023522995226
-0.0041678639216
0.0215801841394
0.0443281202805
0.069850797714
0.0913277004587
0.114513289552
0.133316012072
0.153135703967
0.167754536295
0.182534539269
0.194985686431
0.208330110901
0.21779220545
0.226746345007
0.234486437157
0.242642789969
0.247852708268
0.252112426592
0.257061889558
0.260151079493
0.263755249474
0.271562589473
0.281068781221
0.290953590898
0.299899409513
0.310425906267
0.320133960615
0.331745341483
0.341361744819
0.350137071882
0.358833294698
0.367727303001
0.37247155129
0.374733151819
0.373371665557
0.371385343895
0.366120662285
0.356583313175
0.347421806869
0.336365937684
0.325688714587
0.31480877021
0.301917166288
0.289661794818
0.279547577826
0.268729461902
0.259434740829
0.249086800377
0.241096398559
0.237208720558
0.230949920673
0.225343852479
0.219022193548
0.209108696491
0.199819661075
0.18889151467
0.177435627771
0.161771666383
0.146836548448
0.12908689081
0.111631580137
0.0886257876424
0.0667369169137
0.0393676886573
0.0144140928974
-0.0145423656496
-0.0400479567493
-0.0688552220547
-0.0895476920132
-0.106912587023
-0.121280889724
-0.135432399316
-0.143473584176
-0.147221188736
-0.151516970563
-0.157467906458
-0.15901266531
-0.15681830795
-0.1541005126
-0.149732497005
-0.139068479401
-0.120033125408
-0.101767533305
-0.0796799337451
-0.059945222469
-0.0389848201227
-0.0235135877741
-0.00919976901529
-0.00195012712605
-0.0008242316713
-0.00306466487387
-0.0104645191346
-0.0223433095333
-0.0419810177268
-0.0622930315416
-0.0901793160579
-0.11478464851
-0.138678821329
-0.158011132983
-0.177503780279
-0.182051608267
-0.171946852156
-0.15940112066
-0.141583845858
-0.11959437881
-0.0918734097204
-0.0716357680128
-0.0526241973903
-0.0377935125924
-0.0217678087721
-0.0100311813638
0.00136980873747
0.0108316231627
0.0214792708822
0.0299221548614
0.0387571676647
0.0462002743097
0.0547992215959
0.0616243190046
0.0687911517028
0.0747894944285
0.0815316575825
0.0869159910329
0.0926392931993
0.0972892678523
0.102637902485
0.106843803254
0.111264248189
0.114804983957
0.118859229279
0.122269720954
0.125142893509
0.125289871647
0.122933081249
0.118651581988
0.111262969156
0.102575271875
0.0879841090174
0.0691835328414
0.0380380655208
0.00166538640584
-0.0477598777581
-0.121881130529
-0.209707796962
-0.283897589173
-0.345745404889
-0.386711728449
-0.38260698176
-0.344529588215
-0.278886347173
-0.183758824786
-0.089070512657
-0.0210724416108
0.0310629313345
0.0736950092319
0.10330815252
0.119893631401
0.132085784929
0.138078982501
0.141416658346
0.202915034124
0.222077947586
0.00339210756362
0.0171954705781
0.20400698596
0.204623624085
0.205807486718
0.208701134053
0.215109675737
0.223561789429
0.23411770167
0.246081015707
0.259155154157
0.272165832934
0.284408089973
0.294350561788
0.301267384415
0.303940482478
0.30254295776
0.297136023706
0.288689398508
0.278423384342
0.267160658085
0.256286020841
0.24606016959
0.237472859098
0.230440778281
0.225645346785
0.238243724389
0.222808560305
0.221082599344
0.220579185124
0.219497061908
0.216744788711
0.210562005249
0.201916753071
0.190574688444
0.176653408425
0.159748101608
0.140338997924
0.118268618202
0.0945075622217
0.0691241997377
0.0438867151596
0.0188981730992
-0.00371079778617
-0.0237655232912
-0.0394041686004
-0.0508126125463
-0.0571940267129
-0.0591922685065
-0.0570985926717
-0.0515680560526
-0.0431440034088
-0.0319304839848
-0.0186855721398
-0.003194158242
0.0133261489981
0.0306509345373
0.0474585093574
0.06350606396
0.0776696475026
0.0901132513187
0.10028526427
0.108580320945
0.114831411563
0.119464527136
0.122406483259
0.12394368939
0.124058933231
0.122895367291
0.120488052216
0.116847147993
0.111976199103
0.105707342771
0.0981581050994
0.0888876157072
0.0783306538919
0.0661570816327
0.0532382733235
0.0393533082421
0.0253175283873
0.225528600857
0.0112927759294
0.00287357450076
0.00325497387771
0.00355745753792
0.00227632127941
0.0031094794688
0.00217158206035
0.0024500945699
0.000454548936265
-0.00292338520291
-0.0102983071659
-0.0288951277649
-0.0326973993656
-0.0450244502972
-0.0243088967994
-0.0187409007662
-0.00525946571624
0.0011354213731
0.00804650965194
0.0192078964911
0.0169527263572
0.0211762613776
0.0140564530923
0.0146725643204
0.0102776470972
0.207595735381
0.0127121579497
0.0454228863937
0.0553595278779
0.0696822237852
0.0909521050305
0.116608384366
0.134057503154
0.146112444905
0.153455505524
0.157700209567
0.159272748452
0.158992531338
0.157088489426
0.154013864121
0.149960026836
0.145021137686
0.139369060311
0.132965350045
0.126060238191
0.118462713059
0.11037888637
0.10149898299
0.0920220012349
0.0814441302311
0.0701503510346
0.0576573416188
0.0447717764596
0.0312571875637
0.0183935198468
0.00627173478867
-0.00393916390019
-0.0124421652101
-0.0186153811846
-0.0230502566262
-0.0257168636681
-0.0268186161489
-0.0259474821625
-0.0226994034721
-0.0164471131987
-0.00672519176743
0.00648398479791
0.0231708832888
0.0423934622734
0.0636365663245
0.0853752869457
0.107077865704
0.127133287827
0.145668879393
0.161442746554
0.174995847663
0.185507696148
0.193700113987
0.199066037827
0.142767894359
0.202176192026
0.143247615412
0.144729867703
0.146385774751
0.148159424778
0.149929002075
0.152065345504
0.154366680402
0.156160772528
0.157560373929
0.157859584969
0.158788397929
0.15808949658
0.155922657997
0.150386143643
0.144515416615
0.136487561374
0.125673316655
0.109156006128
0.0906602277388
0.0719324474565
0.0512872148823
0.0255666816839
-0.00137820975595
-0.0239219853085
-0.045194466952
-0.0666013918221
-0.0875053777254
-0.100818393578
-0.10953264434
-0.11325843314
-0.115896616593
-0.113799395371
-0.109250212111
-0.101902557343
-0.0960058684587
-0.0915533005414
-0.088879656928
-0.0892989883309
-0.0932292827823
-0.100477165351
-0.111436190878
-0.128684236645
-0.150824771655
-0.172249336864
-0.194615086433
-0.218473792963
-0.245309392188
-0.262051761803
-0.272303832891
-0.270959449164
-0.268600789588
-0.255976644883
-0.236447416025
-0.205766541012
-0.179005911212
-0.155492089523
-0.133809378936
-0.111171997731
-0.09409086859
-0.0808916988274
-0.0676322536139
-0.0496773579454
-0.0321364839005
-0.0142341575738
0.00633143742713
0.0328688431159
0.0587867007882
0.0806877282375
0.10169654124
0.124095463112
0.145034421096
0.160588101215
0.174645364545
0.18888782414
0.203073583401
0.213208716154
0.222189313613
0.230786849391
0.239512261025
0.245424154738
0.250104155401
0.254117403332
0.258321191916
0.261854696968
0.267637377863
0.276984090451
0.285327220509
0.295308279612
0.304475088032
0.315340895973
0.326907020768
0.336483219627
0.345809695472
0.355024592938
0.36454225571
0.370355562651
0.373916694567
0.373818716158
0.372373580535
0.369122689317
0.362677184303
0.351995574637
0.342369991082
0.33123957107
0.320352303642
0.307199206019
0.29638486899
0.284663710062
0.274772595354
0.263921680679
0.253397115202
0.240684139607
0.244981608934
0.238891689828
0.233400532134
0.228236310124
0.22234690701
0.215209036002
0.204603553281
0.194138020417
0.183295777126
0.171130725096
0.154436820805
0.137438904496
0.120526907389
0.102051847162
0.0778822336435
0.0514846137355
0.0269749912361
0.00162511250353
-0.0275237732569
-0.057128015389
-0.0795352725262
-0.0988551039076
-0.114358876305
-0.130662461159
-0.13982990612
-0.146071942294
-0.149386200407
-0.155715785656
-0.158487879544
-0.159206803655
-0.155915159548
-0.153119686707
-0.144913534478
-0.132199259949
-0.111172116257
-0.0897846296754
-0.0697185277083
-0.0503379515883
-0.0307918087235
-0.014464319932
-0.00503267773422
-0.000310315563208
-0.00142259190671
-0.00612493109874
-0.0158316921352
-0.0301158887844
-0.0517513880139
-0.0778909162753
-0.10240412656
-0.126290439557
-0.148971035151
-0.172150754551
-0.180629505785
-0.181183405313
-0.166340760186
-0.151732883685
-0.130523641017
-0.108388782258
-0.0815116502108
-0.0610028046018
-0.0450019161322
-0.0307636239365
-0.0156651743518
-0.00363139211561
0.00609908642559
0.0153198804488
0.0257539249537
0.0348943283462
0.0424770918313
0.0498775041118
0.058290536236
0.0657186306368
0.0717791209583
0.0776285893602
0.084297412208
0.0900928584847
0.0949808659273
0.0995982084566
0.10485021659
0.109314097682
0.113009055004
0.116612065076
0.120464678711
0.123709234281
0.126010115602
0.12446861117
0.120845282831
0.114735968083
0.107205073306
0.0967438629538
0.0792353211662
0.052978953585
0.0214031204248
-0.0209769129247
-0.0873296297766
-0.17145568223
-0.248395768753
-0.317292664214
-0.372920706069
-0.388933929059
-0.365675688181
-0.313193192993
-0.227786292483
-0.130425739835
-0.055152718771
0.00545397262836
0.0572806986924
0.0929521816656
0.113317108565
0.126495194932
0.135510645647
0.140415987476
0.142420993131
0.248683142237
0.0122784114019
0.21351875951
0.221540936143
0.231649077012
0.243385566497
0.256212024778
0.26942956625
0.281826103926
0.292547500675
0.300051753695
0.303837697619
0.303184583706
0.298673185322
0.290744415327
0.280747753966
0.269667351017
0.258557674919
0.248223170178
0.239127473511
0.231866990939
0.22645636665
0.223262908531
0.217809851445
0.212146181035
0.204047686377
0.193300849438
0.179927019545
0.163704365122
0.144773808664
0.12333597526
0.0997671398442
0.0747476433921
0.0492982907494
0.0243134171028
0.0008944918815
-0.0196299484227
-0.036497275356
-0.0486220813622
-0.0562869524919
-0.0590822163705
-0.0579474317644
-0.0530361717354
-0.0452320367158
-0.0345953114693
-0.0217279413311
-0.00671358024892
0.00968967535099
0.0268235126307
0.0439308664086
0.0600752308829
0.0748128854179
0.0875220211439
0.0983151103477
0.106892879207
0.113674431208
0.118574231911
0.121924543701
0.123716364817
0.124171439591
0.123252086184
0.121119918911
0.117755882181
0.113167351978
0.107216621677
0.0999628436317
0.0910602439928
0.0807176746396
0.0689431176137
0.0560559326273
0.0424688519204
0.0284189171949
0.0143581618671
0.00367145036346
0.00284333808735
0.00351640637966
0.00238224025783
0.00206245240829
-0.00154340307966
-0.0105821149397
-0.0225199631379
-0.0471035019509
-0.0411261671213
-0.0440483823535
-0.0194928230511
-0.0118515499635
-0.000843971811452
0.0103631636291
0.0164547644084
0.0252762164421
0.020144164276
0.0210992286714
0.014070807947
0.0148902675035
0.084276402018
0.111576102844
0.130925120762
0.143877497331
0.152236866434
0.156977143822
0.159170421835
0.159185617967
0.157643378386
0.154775670819
0.150933637255
0.146176090933
0.140668244988
0.134426324488
0.127614050992
0.120187770295
0.112189947968
0.10351148324
0.0941555947655
0.083856685063
0.072681559348
0.060518675179
0.0475933821716
0.0342856847962
0.0210966836308
0.00884651021726
-0.00196005070347
-0.0107349965739
-0.0174952326655
-0.0222019211278
-0.0253072525824
-0.0267111275352
-0.0263704931498
-0.0236328879532
-0.0181431372563
-0.00915160033029
0.00326117193105
0.019246802065
0.038006927681
0.0588558133811
0.0806429526069
0.102358020209
0.12295488716
0.141742639385
0.158280413552
0.172188570708
0.183491585416
0.192091534638
0.198133416559
0.201702675256
0.142923907885
0.144152018178
0.145893881314
0.147468347431
0.149178182152
0.151133202783
0.153445328489
0.154930850287
0.156354982065
0.158206689496
0.158496134759
0.156993877772
0.155082191978
0.152190367599
0.146816863367
0.136994002665
0.12690076023
0.113750417954
0.0974462208187
0.0759721453496
0.0563032204882
0.0311962226195
0.00811513971511
-0.017140293165
-0.0381484916123
-0.0628327736027
-0.081444430207
-0.0949298885043
-0.104802302319
-0.113577109626
-0.113880434509
-0.112369062218
-0.108887855076
-0.103787867345
-0.0968727873691
-0.0924461665155
-0.089578289685
-0.0887282800423
-0.0925232863823
-0.0988933357153
-0.108566504679
-0.124698854469
-0.144973076771
-0.1649780051
-0.1864974571
-0.214568843588
-0.236058022954
-0.252262862169
-0.26417325127
-0.274145835449
-0.264568855827
-0.253205638895
-0.236732994506
-0.21373550006
-0.182265527442
-0.158811009348
-0.13740033153
-0.116055041289
-0.0964945352025
-0.0826031333196
-0.0694306598309
-0.0542243669102
-0.0346179486823
-0.0170864613896
0.00229308503647
0.0268628309702
0.0535169715051
0.0753431127003
0.0961493420503
0.119635177758
0.140065256258
0.155816475367
0.170276733879
0.186285675321
0.199144811344
0.209443841616
0.218815757238
0.22943525635
0.2367492794
0.242704416733
0.247812770388
0.253711906148
0.256716902307
0.259818233717
0.265728599436
0.274720333635
0.283052419608
0.293122249723
0.301995002663
0.311227564994
0.322932090957
0.333346589634
0.342666679278
0.353588779772
0.361551099916
0.367347369797
0.371350010523
0.374702733551
0.373863668804
0.368426828859
0.362747888167
0.354916580578
0.345528943455
0.332967426042
0.322340969795
0.3101281752
0.299311652361
0.287186987559
0.277267555503
0.266102824237
0.255710517111
0.24710081461
0.238805085029
0.235242577568
0.230284646354
0.222595400467
0.21595021147
0.207495064728
0.197913412272
0.184950511115
0.173211735039
0.160293962518
0.140451529144
0.124030399389
0.106261033294
0.0833817808097
0.057388612685
0.0337094344667
0.00892991380012
-0.0165358258845
-0.0472035333167
-0.0715732792092
-0.0912475459076
-0.112446103095
-0.125461911998
-0.134227675344
-0.14181000487
-0.149846319273
-0.152317338259
-0.155048916812
-0.156132173104
-0.158233625634
-0.151499246405
-0.144203884111
-0.132916028443
-0.116824056906
-0.0936151711304
-0.0739156294827
-0.0550681699081
-0.0342494960908
-0.0185791053727
-0.00861251005604
-0.00261927316057
-7.3035415278e-05
-0.00568929374231
-0.0143146074102
-0.026766644835
-0.0469486989567
-0.0709644311049
-0.0940629657423
-0.117695250177
-0.146638322713
-0.163075265738
-0.172259603274
-0.175574838642
-0.172765169098
-0.151282181856
-0.130829919467
-0.110467900678
-0.0880237467998
-0.0634335348217
-0.0470170363085
-0.033196749731
-0.0191706401819
-0.00547992263538
0.00447946826831
0.0136709446738
0.0233453875064
0.0333297599614
0.0411470844241
0.048383659666
0.0563996733003
0.0644094561675
0.0705428295916
0.076452999803
0.0828103228914
0.0889791544584
0.0940994581684
0.0986412887436
0.103673971401
0.10844145616
0.112378080841
0.115819161212
0.119579498835
0.123281899913
0.125866060331
0.125436620532
0.121689859955
0.117142761803
0.109513143914
0.100032819168
0.0866093336882
0.0631458034541
0.030182931702
-0.00863519997556
-0.0714304310562
-0.140885607509
-0.228527146653
-0.300701847761
-0.364422730023
-0.389300919796
-0.373879612374
-0.328152753578
-0.246345666759
-0.162582340272
-0.073107947262
-0.00931723430056
0.0470171778825
0.0817355222152
0.108692859656
0.123424124003
0.134235480789
0.139231622701
0.141822157929
0.263851116003
0.274807435435
0.288347653808
0.29620087301
0.302792237712
0.304114884089
0.301069932973
0.295677899136
0.285166719825
0.2761655435
0.263195510118
0.254061695178
0.242777974492
0.235799849811
0.228430729397
0.224809243956
0.199882230766
0.185925372967
0.173408017771
0.153086869963
0.135992281573
0.109909707994
0.089380954619
0.0600675157311
0.0386412493754
0.010504804856
-0.00818736868771
-0.0299365733778
-0.0422123015131
-0.0537018182205
-0.0580604649285
-0.0589199468032
-0.0563191691953
-0.0488699334709
-0.0411234512606
-0.0273960748009
-0.0157080405006
0.00261964134166
0.0167960178101
0.0367828333223
0.0508304087151
0.0688302107267
0.0804639004822
0.0940469980934
0.102214105018
0.111067492451
0.115960341076
0.120705234977
0.122870396298
0.124153815985
0.12395318485
0.122173805097
0.119873582926
0.115248032751
0.110826743538
0.103183867898
0.0964046399411
0.0852355540448
0.075957296961
0.0615601721933
0.0504315172847
0.0343670454232
0.0225302013314
0.00333248978739
0.00257375301476
0.000969070981824
-0.00610496872419
-0.016914041665
-0.0402016170197
-0.0518975668838
-0.0495776578099
-0.0363397925196
-0.0168914602555
-0.00680644988186
0.00592454863119
0.0151021693807
0.0239842512207
0.0250365203821
0.0225106925619
0.0189460336429
0.0156140667399
0.0144004229694
0.137068912494
0.149244234548
0.154625819714
0.158568809085
0.159395335299
0.158487150204
0.156588766535
0.152674228605
0.149034119586
0.143082225263
0.138121953562
0.130558531764
0.124540988965
0.115640277841
0.108630524643
0.0981979561623
0.0899445840799
0.0775137635149
0.0676702392284
0.0530596769446
0.042003426427
0.0265300088265
0.0157630112062
0.00230543362047
-0.00590287412679
-0.0149399964166
-0.0197085520152
-0.0242129101813
-0.0261135078947
-0.0267771625134
-0.0255597219419
-0.0208631700568
-0.0148266802179
-0.00242092653358
0.00957058187035
0.0297937752783
0.0465908371183
0.0714271999449
0.0898238647116
0.114468261265
0.131127195123
0.151637308157
0.164457426778
0.179112922249
0.187441521479
0.195951069979
0.199959479965
0.143452178077
0.145083920142
0.146622139424
0.148346686879
0.150045064856
0.152694404162
0.154167873975
0.155635612688
0.156908475509
0.15847131911
0.157615149974
0.156024356467
0.153631246949
0.149944312748
0.141289589062
0.132049520581
0.121164644066
0.106058444708
0.0853211221316
0.0663307461653
0.0457894691104
0.0196769263956
-0.00613275013602
-0.0276122389013
-0.0485084118828
-0.0723392594232
-0.0886298539223
-0.100118529334
-0.108349103737
-0.115201914844
-0.113467974501
-0.110682382414
-0.106605943006
-0.100922188589
-0.0945091900571
-0.0908639377786
-0.0889164673105
-0.0895749681569
-0.0952458404281
-0.103369591134
-0.114855193062
-0.133255809747
-0.154683231017
-0.175416846527
-0.197698508781
-0.225868802319
-0.244797348113
-0.258120774295
-0.268144048951
-0.273538668977
-0.260049275394
-0.245144731159
-0.226317335656
-0.201475207254
-0.170551897268
-0.147567268659
-0.127514459648
-0.10765775291
-0.0894258218734
-0.0758007433621
-0.0616264890093
-0.0466423497606
-0.0261012080111
-0.00751446782177
0.0127049928995
0.0424666914265
0.0644345721875
0.0859043883733
0.106258671514
0.129037883949
0.148229452163
0.163071660491
0.179786791067
0.192446839191
0.204468029224
0.214143851006
0.225287890961
0.233233646577
0.239727317855
0.245343237319
0.251617693681
0.255390552171
0.258008844184
0.269713918947
0.278960467218
0.288816403518
0.297503774687
0.306488249832
0.31791756849
0.32865673339
0.338010388057
0.346992270604
0.357680532606
0.364747639242
0.369585834228
0.372671309406
0.374627574036
0.370558463127
0.365784290347
0.359430020561
0.350404008967
0.337928970762
0.327682359281
0.317181460214
0.304718924052
0.292098795124
0.282180568198
0.272666930363
0.261484253594
0.251340842076
0.242848895677
0.237179978104
0.232852133336
0.225649528703
0.21944120123
0.21208119195
0.202911693657
0.190449694575
0.179122516736
0.166944970994
0.151286276818
0.132468765732
0.115400136725
0.0966748462814
0.0724384680817
0.0457337696836
0.0214128913629
-0.00378736939599
-0.0347416850539
-0.0609097928845
-0.0814192771191
-0.10017222001
-0.119818494625
-0.129973269351
-0.138356155283
-0.144516634276
-0.152123849207
-0.153820348117
-0.155517585582
-0.156340669404
-0.156834350587
-0.148339565474
-0.138790843434
-0.126064025954
-0.107546015068
-0.0836989672164
-0.0644181625177
-0.0460998206037
-0.0264950740339
-0.0131133681811
-0.00507533124858
-0.00141256214609
-0.00116198148163
-0.00954886132983
-0.0200018907132
-0.0347144432867
-0.0571522839337
-0.0824669579776
-0.105886846844
-0.129042889201
-0.156196488797
-0.169156579287
-0.174660644369
-0.174338364668
-0.166212303861
-0.141817310205
-0.120586295314
-0.100106443643
-0.077631559381
-0.054850489979
-0.0400236744754
-0.0268055638076
-0.0132512231164
-0.000333938761657
0.00912733973269
0.0189794733772
0.0275637173405
0.0373434721612
0.0447864511797
0.0527753078163
0.0598085830606
0.0675953983692
0.0735463790038
0.0799800512089
0.0854731239822
0.0915418201776
0.0963151570031
0.101412004126
0.105745334995
0.110474736342
0.114036437
0.117976607453
0.121154048015
0.124884106797
0.124094841857
0.11967668888
0.113339024365
0.105245961029
0.0938858729966
0.0743483727365
0.0461396329757
0.0124146129607
-0.0329587056477
-0.104681345352
-0.189960306802
-0.265248294214
-0.330969616422
-0.380934973534
-0.387364991448
-0.357474912498
-0.298052486745
-0.206488851121
-0.108649232158
-0.0373595331519
0.0185379817514
0.0666434280647
0.097928274317
0.116272552132
0.128412883317
0.136933676056
0.140709258047
0.142605050217
0.217892088027
0.209784354528
0.207803801966
0.215750226399
0.00349874358293
0.00363070412284
0.123656609858
0.0970651358223
0.204902186394
0.209338999548
0.221364780459
0.210328422816
0.231346024971
0.00719547166795
0.243275156362
0.218074727699
0.256143072535
0.0298528415447
0.26956541664
0.282121805052
0.292868029802
0.300720015839
0.304267246322
0.303918329558
0.298986461286
0.291159456553
0.280852334878
0.269636191807
0.258489064973
0.247921824794
0.238954558239
0.231417031301
0.226253637658
0.222891217756
0.198709631945
0.236270759059
0.235348743194
0.240443938241
0.222268436508
0.00708684474783
0.22031637751
0.219160663442
0.00848325767802
0.204278104665
0.206422539104
0.202496777297
0.18815308949
0.17143898716
0.156051022695
0.1331196585
0.113473638215
0.0856690752719
0.0636463066868
0.0347365941357
0.0135131288442
-0.0116784697082
-0.0281458746935
-0.0446195346981
-0.0533158959478
-0.0591171891409
-0.0596879537815
-0.0561121442316
-0.0504907924318
-0.039945868778
-0.0296725010055
-0.0137853833347
1.59527745141e-05
0.0192588052147
0.0343109315775
0.0533442182726
0.0669754094335
0.0825928368864
0.0928062898132
0.103719136284
0.110377323699
0.116879508351
0.120448994119
0.123326409837
0.124272726805
0.124000026824
0.122648634462
0.119545252513
0.11608140649
0.110139838496
0.104344439389
0.0952562216723
0.0868465524292
0.0743124805124
0.0635110842311
0.0484861310782
0.0363846705883
0.0203299009262
0.0137033290897
0.0203097105863
0.00870200598942
0.00806781895078
0.226780002739
0.222884325157
0.227056979125
0.00882925467593
0.0182020813675
0.00882107970746
0.0116855506137
0.121379718885
0.00719573763344
0.0113959837206
0.01116074649
0.00692343032499
0.00192509663499
-0.00974373455946
-0.0465121593673
-0.0874425291794
-0.129674370624
-0.132552725438
-0.0901076265064
-0.0530125883531
-0.01086984135
0.0152196009374
0.041066025106
0.0519255469309
0.0544541755067
0.0486775150556
0.0397650178847
0.0343261443048
0.0271195562509
0.03259120295
0.0844662095243
0.139595533749
0.207355524952
0.205985437811
0.207983177046
0.203523519666
0.203703143327
0.0641767946229
0.0778598791075
0.131216618467
0.128841817417
0.135383499223
0.148503685671
0.155727340156
0.158586508963
0.15966505904
0.158920708938
0.156324479808
0.153382406694
0.14843358183
0.14399254464
0.137298364311
0.131667090977
0.123509551822
0.116908399907
0.107420404444
0.0996641919875
0.088440718693
0.079159053316
0.0657940449105
0.0548979389516
0.0398338340245
0.0282769197574
0.0136261436375
0.0036070246345
-0.00757243734141
-0.0142500477147
-0.0206503897731
-0.0240009632347
-0.0265603370184
-0.0271048731933
-0.0255369852688
-0.0221147488261
-0.0140542437864
-0.00479983954441
0.0113685556209
0.0265653437015
0.0493647594625
0.0679132815618
0.0930788109694
0.111438642412
0.134115235745
0.149426184673
0.166851329732
0.177779915679
0.189127707356
0.195424210467
0.200757264679
0.143359686112
0.216430687189
0.219126022008
0.143033795349
0.143122876957
0.144472419529
0.14608919245
0.147672556005
0.149099402949
0.150780936043
0.152155898996
0.153435556185
0.153891079763
0.153734189751
0.154099709877
0.152251485546
0.147869773088
0.143000513977
0.136510161074
0.128014370848
0.116778829383
0.100566570312
0.0824865435627
0.0648833594176
0.041930930602
0.020602915222
-0.00408351899246
-0.0238033386666
-0.0450869403357
-0.0632424958632
-0.0815662512581
-0.0928864180176
-0.100889611534
-0.104544247705
-0.107393961271
-0.105908360391
-0.103040148306
-0.097476929752
-0.0935547159165
-0.0909376406242
-0.0899927074197
-0.0916057885575
-0.0965795679815
-0.104180494045
-0.117006735976
-0.131637540779
-0.151247958112
-0.16973398469
-0.189607172539
-0.209197735086
-0.230730068304
-0.242880072103
-0.251699171799
-0.24700355222
-0.243145356195
-0.230920459264
-0.213799765089
-0.185816265267
-0.16312851584
-0.142342603456
-0.119232552494
-0.101606592807
-0.0854759476813
-0.071624443601
-0.0548909853424
-0.039144935248
-0.0214528433833
-0.00365151455957
0.0201805603623
0.0418381217904
0.0654953122771
0.085327924989
0.105145651552
0.126088650309
0.145995098472
0.160322778223
0.175190437713
0.18781413707
0.201225944281
0.210673791987
0.220103566
0.228005073037
0.236281308093
0.242228958147
0.246758973861
0.250977625814
0.255375839125
0.25730284963
0.270308979093
0.266088815132
0.26833820224
0.279466951498
0.287266690356
0.297235186585
0.30754411247
0.316342007888
0.326878077367
0.335932318743
0.344850260024
0.352083701069
0.360549119117
0.365403034933
0.367898090213
0.36678200531
0.365649997999
0.361386098712
0.355270491399
0.345224070711
0.335462104378
0.325859381583
0.315581466245
0.303626130695
0.292104864641
0.282328385052
0.272902597513
0.262678121741
0.251883982586
0.243051251918
0.233172165599
0.23598143111
0.234034946841
0.228027918788
0.222116078641
0.216657914175
0.208693942944
0.197652946527
0.187629530048
0.17616981206
0.164217430215
0.146987641768
0.13136352979
0.113741985204
0.095139657899
0.0716048537287
0.0467383142404
0.0230220308026
-0.000940309027785
-0.027514242057
-0.0507362058246
-0.0747979989143
-0.0918319201224
-0.107202222947
-0.121459625893
-0.130592411718
-0.136580587157
-0.140152276653
-0.146843372749
-0.148306823682
-0.146425347968
-0.14288479448
-0.140633515641
-0.131374049716
-0.119613687833
-0.100764871526
-0.0810929318229
-0.0635165564195
-0.0467477218904
-0.0305986213642
-0.0163259015588
-0.00901865799981
-0.00616649452548
-0.007569134277
-0.0131014219917
-0.0221811103803
-0.038311641361
-0.0556386380953
-0.0788025844311
-0.0993736919915
-0.118866751347
-0.135970438828
-0.154048118648
-0.159558519313
-0.157401819359
-0.14355727651
-0.129409312157
-0.110320798894
-0.0918612872743
-0.0689421465955
-0.0500298278964
-0.0367723295996
-0.0210026832101
-0.00959330085749
0.00160305080313
0.010817971124
0.0212829768814
0.0297680121426