/*--------------------------------*- C++ -*----------------------------------*\
| =========                 |                                                 |
| \\      /  F ield         | OpenFOAM: The Open Source CFD Toolbox           |
|  \\    /   O peration     | Version:  4.1                                   |
|   \\  /    A nd           | Web:      www.OpenFOAM.org                      |
|    \\/     M anipulation  |                                                 |
\*---------------------------------------------------------------------------*/
FoamFile
{
    version     2.0;
    format      ascii;
    class       volVectorField;
    location    "0";
    object      U;
}
// * * * * * * * * * * * * * * * * * * * * * * * * * * * * * * * * * * * * * //

dimensions      [0 1 -1 0 0 0 0];

internalField   nonuniform List<vector> 
47927
(
(1.00002555715 2.36410745417e-05 1.3703033685e-21)
(1.00006722462 0.000398907941296 -5.23948215037e-21)
(1.0000321478 0.000674042069786 1.61635868621e-21)
(1.0000561071 0.00140020025977 2.43029487022e-21)
(1.00004349656 0.00140140618933 -2.8476088815e-21)
(1.00004063283 0.00230506728844 -2.23526774246e-21)
(1.00000950396 0.00199114393765 4.26922201495e-21)
(0.999965230924 0.00281194813519 7.62992121377e-21)
(1.00001173182 0.00214442801956 -2.76861129424e-21)
(0.999909305079 0.0026503435283 -7.35242887467e-21)
(1.00000236841 0.00164549204062 8.27129656922e-24)
(0.999919332813 0.00145414257504 -1.45866375108e-23)
(0.999936866672 0.000412605448594 -3.50290597414e-21)
(0.999872391499 -0.000387571729163 -6.02269479529e-22)
(0.999996195123 -0.000949032857843 9.90715337109e-21)
(0.999946062024 -0.00188968924112 -2.85014878758e-21)
(0.999995553739 -0.001728415661 0)
(0.999962293339 -0.00244735962195 2.78408766916e-21)
(1.00000726073 -0.0018019682374 1.49388778279e-21)
(0.999993079842 -0.00218512895772 -9.32350439202e-21)
(0.9999958777 -0.00142887826761 1.09639185937e-20)
(1.00002676025 -0.00148743386288 1.56967627169e-21)
(1.00001124862 -0.000750849790584 8.89972085997e-21)
(1.00005168448 -0.000578479220179 8.53246634936e-21)
(1.00004238856 -3.46283408481e-05 1.55667446455e-21)
(1.00066122761 -0.000311638473679 -9.02415481683e-22)
(1.00359354245 -0.000537429454526 1.84774132176e-23)
(1.00867883393 -0.0013194233428 0)
(1.0164473223 -0.00131401900886 -8.25939096568e-21)
(1.0264946695 -0.00239856497556 -4.30127849242e-21)
(1.03942784565 -0.00213294924284 4.44096385159e-21)
(1.05456569975 -0.00355777278332 3.44653285615e-21)
(1.0724681206 -0.00289598494934 -7.96630440291e-21)
(1.09208216344 -0.00449057228778 -5.89136581751e-21)
(1.11361656339 -0.00346178526123 -4.75731362565e-21)
(1.13561933232 -0.0048706395785 2.59955275223e-22)
(1.15761629685 -0.00348210141353 -5.30025955899e-22)
(1.17808352863 -0.00430556216618 5.64260714478e-22)
(1.19607970101 -0.00273941885809 -3.21139776945e-22)
(1.21030868456 -0.00271870136543 1.3916107357e-22)
(1.21985782903 -0.00127005892562 2.02758943838e-24)
(1.22438396132 -0.000392732780103 -2.16906701541e-22)
(1.22339527203 0.000407255149426 -1.63819559235e-21)
(1.2183745912 0.0014618495915 -1.99818467792e-21)
(1.2096791302 0.001436646671 0)
(1.19906220493 0.00245488424155 -1.3548422483e-21)
(1.18689302285 0.00200784256851 -2.01374773985e-21)
(1.17460670015 0.00270205696752 -1.51561895307e-22)
(1.16169116032 0.00214199874575 7.25940366577e-22)
(1.14897421153 0.00278984603457 -3.48803167103e-22)
(1.13574686839 0.00215446448775 -1.59492374814e-22)
(1.12296807942 0.00280602538147 5.87543942397e-22)
(1.11026347368 0.0020201642906 1.53938912931e-21)
(1.09888060925 0.00238972201805 -1.10704214154e-23)
(1.08856579582 0.00155360785683 -1.17030931319e-21)
(1.08011268264 0.00176734301759 -2.22631039853e-21)
(1.07289283509 0.00108172153293 4.54677524743e-21)
(1.06686961444 0.00130624262517 -1.62983379405e-21)
(1.06108095585 0.000931290392012 5.66050399355e-22)
(1.05539542588 0.00131127473389 -3.05786737346e-22)
(1.04923018569 0.00103791082031 0)
(1.04307149875 0.00135238286131 1.09569166138e-21)
(1.03725607216 0.000909318869921 -8.74448599291e-21)
(1.03284050597 0.000759926079992 2.73814077737e-21)
(1.03084151896 4.5133184589e-05 2.08342593583e-21)
(1.0322459268 -0.000694383118284 3.09254919007e-21)
(1.03767495189 -0.00108273684911 3.50273138614e-21)
(1.04703809803 -0.00245606960281 2.04963650406e-21)
(1.06080262634 -0.00239476964732 7.19221894483e-22)
(1.07749672618 -0.00385551192404 2.46617294883e-21)
(1.09614035437 -0.00310106324964 -3.63025083992e-21)
(1.11427379373 -0.00379893332449 -1.12019887267e-21)
(1.13066791128 -0.00250649402983 -8.78930328369e-24)
(1.14347260013 -0.00235567224431 -2.65208903542e-21)
(1.15219734237 -0.00108360141829 3.26786539642e-22)
(1.15709409897 -0.000664589059355 3.31526227391e-22)
(1.15858506487 -0.000524618265968 0)
(1.1597191173 -0.0001486742297 -9.30334910694e-24)
(1.16591656696 0.00105224441689 8.2022522481e-23)
(1.17641146571 0.00529006973786 -7.09000707383e-23)
(1.19030732986 0.0162681127997 -2.81911352503e-23)
(1.20991999132 0.0352517200653 1.46154508821e-22)
(1.23852752474 0.074852541263 -3.46734210746e-23)
(1.29475751114 0.152414867696 -1.14257007147e-23)
(1.3265437004 0.271871711183 1.04345797336e-22)
(1.30381771098 0.416367260626 -1.50583838713e-22)
(1.1379843001 0.548538032126 1.50526894965e-21)
(0.891657762359 0.633539603017 1.63742972084e-21)
(0.641906441614 0.598242900494 -1.29663819628e-21)
(0.457818175299 0.520595594395 8.1452313597e-22)
(0.345638581504 0.42859397247 -8.73562424365e-22)
(0.312540984162 0.427770976122 1.51876136331e-23)
(0.411825057938 0.481365385702 -3.35766067936e-22)
(0.643874521918 0.550832350625 -1.84794175344e-22)
(0.905853220621 0.544113637641 -4.04409008399e-22)
(1.0878062096 0.458396319282 7.86724785147e-22)
(1.17166820471 0.340047527976 0)
(1.20130854962 0.237699975771 -5.64836983494e-22)
(1.24968633888 0.158662725629 -3.92437700214e-22)
(1.24720959955 0.0839327056846 -1.88343584559e-23)
(1.24954511679 0.0181942838288 1.66442228498e-22)
(1.2079931152 0.0148091723196 -7.96582370385e-22)
(1.14550448992 0.00900878244252 3.45386295415e-22)
(1.09465384904 0.00960426173421 -1.35714720226e-21)
(1.05625265352 0.00479558800004 -6.43033618085e-21)
(1.02935081991 0.00451691911536 2.66400357138e-23)
(1.01257712287 0.00186234423349 9.89223187334e-22)
(1.0039232597 0.00110077819035 -3.9835857824e-21)
(1.00090868178 0.000169578092393 1.89422319593e-21)
(1.00081376061 -0.000101582037473 -1.43342524441e-21)
(1.00112561982 4.56901337467e-05 5.98538027583e-21)
(1.00017492966 0.000459262437953 -7.12378919428e-22)
(0.99687636484 0.000730124084247 2.83050172819e-21)
(0.991807850132 0.00125552640534 3.81565331006e-21)
(0.985616607938 0.00100418363866 -9.03426845463e-21)
(0.980209783838 0.000943607919859 2.33015719204e-21)
(0.977117441089 0.000220708577776 -1.08475011069e-20)
(0.977256708352 -0.00055673503429 -1.34918028521e-21)
(0.982340436774 -0.00129238532286 -6.49340052388e-22)
(0.99213537392 -0.00274420968509 -2.88964616439e-21)
(1.00710650004 -0.00291476194895 -4.91975915866e-21)
(1.02608875517 -0.00462955570182 2.2571949411e-21)
(1.04905933815 -0.00405058793269 4.26420559554e-21)
(1.07405524143 -0.00566405217205 -1.15941537888e-21)
(1.10070308945 -0.00437572298109 -5.5561145413e-22)
(1.12669245201 -0.00552128074778 -6.08519270217e-22)
(1.15103713936 -0.00368724873777 -1.49573784296e-21)
(1.17174653494 -0.00399328231677 -4.69659505929e-22)
(1.18784515313 -0.00209022486053 5.18793442194e-24)
(1.19883832812 -0.00178257426522 -2.94109839378e-23)
(1.20509009664 -0.000624228623007 -8.68372632926e-22)
(1.2077436291 -0.000220130431119 -6.1130270369e-22)
(1.20764058754 0.000178327677353 -1.68044262458e-21)
(1.20607630135 0.00047457316629 2.67694136484e-22)
(1.20346689233 0.000547971683084 -4.79744240414e-22)
(1.20008273331 0.00094514748872 -1.59419849188e-22)
(1.19501560548 0.00106508692272 0)
(1.18817273761 0.00189501480741 -2.33556929085e-22)
(1.17846307724 0.00190977452871 -2.50876965435e-23)
(1.16639773952 0.00305395616961 0)
(1.15134830076 0.00269272890299 0)
(1.13466692782 0.00391838883556 9.41574934469e-22)
(1.11623273556 0.00309685578053 -9.96189250302e-22)
(1.09766155784 0.00402688554708 -1.49800185768e-21)
(1.07910288834 0.0029050881459 -6.05641568522e-21)
(1.06192561511 0.00350680138218 -9.46613204233e-21)
(1.04613875336 0.00234584878182 1.40301429643e-20)
(1.03267398478 0.00263599381144 6.73592533778e-21)
(1.02128345388 0.00157741326089 0)
(1.01244505711 0.0016194360517 5.01822741868e-21)
(1.00591346028 0.00082077659215 -4.42998654783e-21)
(1.00188055274 0.000589616395068 3.81105864158e-21)
(1.17864108874 0.0378846896122 1.26597745727e-21)
(1.17518628272 0.0168528636243 2.35758336883e-21)
(1.16885854226 -0.000277712084719 5.10663016197e-22)
(1.16009790178 -0.0182326307954 3.69047062267e-21)
(1.1469429898 -0.0291294153459 -9.16414277558e-22)
(1.13144595611 -0.0364601465366 -2.33330295926e-21)
(1.11225000218 -0.0387325543252 -6.51668956155e-21)
(1.09364752355 -0.039660715146 -4.67702848923e-22)
(1.07792124663 -0.0346010665981 -1.63371718813e-21)
(1.06169707413 -0.0232469197319 5.87474077846e-21)
(1.04899187248 -0.0108701329571 1.92057783983e-21)
(1.03586421567 0.00534624305536 1.16760382329e-21)
(1.0291170272 0.023008557854 -1.07610287059e-22)
(1.02708589943 0.0458547113856 2.55520398748e-21)
(1.02795580297 0.0673369845243 -2.4747265337e-21)
(1.03232720164 0.0932491418036 1.21651512942e-21)
(1.0430706596 0.114151454865 -1.30511808e-22)
(1.06219860026 0.134974657212 1.14960897054e-21)
(1.08240537063 0.15139247157 -7.60638602917e-22)
(1.1082075396 0.165849273571 -2.31165389984e-22)
(1.13249832839 0.170843298787 4.55374398361e-23)
(1.15999284458 0.168075691564 -3.19811904488e-22)
(1.18281897364 0.16346982026 1.20035793063e-22)
(1.20699943203 0.155752965885 -9.49684513108e-22)
(1.22378545285 0.144457482847 9.18787134128e-22)
(1.23831751626 0.127750654638 7.70650304324e-22)
(1.24939785673 0.112794712417 1.12983758244e-21)
(1.25956793786 0.0949914217554 -1.76602572165e-21)
(1.26178549109 0.0787337453634 1.75017858094e-23)
(1.25728756019 0.0616795307079 1.03084928393e-21)
(1.25110097451 0.0488867580219 -7.04734254311e-22)
(1.24150700579 0.0374668634333 6.03977719697e-21)
(1.22969819152 0.0332176372447 -8.25728118895e-23)
(1.2149674491 0.0353669490846 -2.17971074347e-22)
(1.20304541704 0.0411522112921 1.51538370471e-21)
(1.19100970999 0.0522367579978 -6.05780453626e-22)
(1.1846105029 0.0667855667127 -1.85344605043e-21)
(1.18326062913 0.0871154424268 -3.65425555189e-21)
(1.1859421359 0.106995739411 -8.46046409084e-22)
(1.19358020419 0.131493618775 -1.70268887787e-21)
(1.20759204047 0.151138670496 -1.96071700449e-21)
(1.23198802162 0.169435534434 4.08378318607e-21)
(1.25772871682 0.184077063743 -3.8401321016e-21)
(1.29201852347 0.197573369555 -1.04417873698e-21)
(1.32588315938 0.199268380869 -4.45520625246e-21)
(1.36617591496 0.188583242985 4.84687348267e-21)
(1.40239524478 0.174221317273 1.1213877247e-23)
(1.44359868169 0.150542055057 -3.24968123516e-21)
(1.47088834635 0.118433960694 -1.79747709434e-21)
(1.48948780441 0.072613175656 -1.65195778816e-21)
(1.50044410978 0.030487050958 2.2435014361e-21)
(1.5062929643 -0.0184829239861 0)
(1.49671588574 -0.0587271846014 -5.73233215659e-21)
(1.47323633366 -0.0971802728303 6.40651941277e-21)
(1.45143325351 -0.126005254492 2.05393437334e-23)
(1.42621786057 -0.152953307384 4.01980433086e-21)
(1.4020207176 -0.166989077996 -6.75050586385e-22)
(1.37505996851 -0.176184338932 3.1098784513e-22)
(1.35540693762 -0.183998714975 -6.4009393624e-22)
(1.33669162695 -0.19263815316 2.76395902419e-21)
(1.32109364242 -0.198268054523 1.86724594534e-22)
(1.30216857979 -0.203989299552 -1.03465929209e-21)
(1.2858823445 -0.211078458169 6.67151812011e-23)
(1.26705268196 -0.220036671095 -6.55572329621e-22)
(1.24837504048 -0.224830632577 -7.74871960414e-23)
(1.22442587726 -0.226313809494 -4.1894793708e-22)
(1.20350220647 -0.227519505473 -1.12435125456e-21)
(1.18039446007 -0.227385417071 4.20958470079e-22)
(1.16123441227 -0.222640900961 8.34152578998e-22)
(1.14054858961 -0.213625323536 -1.46701351353e-21)
(1.12374612866 -0.206359873602 -4.00833165642e-21)
(1.10616017429 -0.198377016692 -7.63455362589e-22)
(1.09307728647 -0.189239438538 -1.69271725772e-21)
(1.07957429268 -0.177246992998 0)
(1.0682844818 -0.168005811534 -3.48643557884e-21)
(1.05636481503 -0.158057440887 6.68697990622e-21)
(1.0477269757 -0.148180814426 -2.80982750467e-21)
(1.03927169238 -0.13619720817 -2.55737550789e-23)
(1.03216231675 -0.126696771404 -2.54631343052e-21)
(1.02490880201 -0.116333046154 1.36743181823e-21)
(1.02006114878 -0.107329355805 6.5475107991e-22)
(1.01575127744 -0.0966732374865 -8.43287973483e-22)
(1.01133187681 -0.0870288103121 -4.22645140771e-22)
(1.00846935984 -0.0791101838358 6.38944340631e-22)
(1.00659100189 -0.0767127920519 -4.10979232619e-22)
(1.00231838271 -0.0785341164735 -7.46196488341e-22)
(0.996907296964 -0.0793445152969 -2.62436949687e-21)
(0.991105897402 -0.0806671050174 0)
(0.98522650951 -0.0800198973554 -1.68606760318e-21)
(0.978164747708 -0.0771416010026 -8.94404414048e-24)
(0.971131116618 -0.0742662124398 -1.02046878452e-20)
(0.962440959206 -0.0706837414508 -1.7915895955e-21)
(0.955053567029 -0.064877809514 2.06318262574e-21)
(0.947944227167 -0.0574902919062 6.61342335925e-21)
(0.940917333827 -0.0459877680724 -3.16292683318e-21)
(0.933242248724 -0.0340357853044 0)
(0.928827040475 -0.0215153583852 1.59780973038e-20)
(0.926547006466 -0.00823733007577 -1.31802338214e-20)
(0.927465768688 0.00792158290291 2.51669569762e-21)
(0.928106685763 0.0242592063791 -4.65264358311e-21)
(0.931908262171 0.0370070011946 0)
(0.939356522203 0.0492337211611 -9.74187497907e-21)
(0.94598779092 0.0592878404971 -1.65707420632e-20)
(0.953955695753 0.0697648361584 -1.57007190083e-20)
(0.96147849641 0.0757367403441 1.24060648791e-21)
(0.969034687525 0.0801610048136 4.2766843974e-21)
(0.977941236343 0.0827875783504 4.17554031533e-21)
(0.985600817641 0.0858089813845 -2.48046168924e-21)
(0.991652195728 0.0861351706482 0)
(0.997981385573 0.0845206077835 6.09074185027e-21)
(1.00286476623 0.0831511423411 0)
(1.00811532818 0.0819320043361 -4.46791721741e-21)
(1.01221074478 0.0829709464085 1.6300706701e-20)
(1.01554569012 0.0906913940081 -2.9724350101e-22)
(1.02058060276 0.0999046537413 1.6513677416e-21)
(1.02561880921 0.110195942405 4.96221272362e-21)
(1.03100814358 0.119073798658 9.70935544456e-21)
(1.03915648849 0.128493134305 -7.24345315286e-21)
(1.04699078273 0.137186125432 -4.68599613921e-21)
(1.05642744591 0.148476040456 7.39494113502e-21)
(1.06605540526 0.156907909004 -8.20372745375e-21)
(1.07905250136 0.165582328674 5.19468555738e-21)
(1.09154624231 0.173185967751 -4.01578111127e-21)
(1.10642777217 0.183387245776 -7.7426155277e-22)
(1.12087456795 0.190163133698 1.48050123146e-21)
(1.1398165233 0.195591740935 -2.1739509296e-21)
(1.15797212087 0.199844898448 1.64936402769e-21)
(1.18061802215 0.205149531583 5.33441423044e-22)
(1.2012746961 0.205906991874 4.46221080477e-22)
(1.22550453284 0.201091961752 8.66768898632e-24)
(1.24701066456 0.194950628317 -8.60286130185e-22)
(1.27151074424 0.18680567599 1.41821988671e-21)
(1.28958741053 0.175386234735 -3.36413478823e-21)
(1.30538855182 0.157697309578 0)
(1.3190169837 0.143043052627 -2.97263169241e-22)
(1.33315146496 0.126787968749 -2.89188552712e-21)
(1.34250120278 0.112025458976 5.40802458167e-21)
(1.34911543156 0.0940413989637 -1.61028078641e-21)
(1.35618516549 0.0783888130245 1.03416628102e-21)
(1.36565017275 0.0598028106693 4.25634946164e-21)
(1.36973080701 0.0415495283476 1.0120278831e-21)
(1.36897220142 0.0173195235828 1.43935715211e-21)
(1.36562949209 -0.00526991682999 -1.62425025972e-21)
(1.35905310788 -0.0325821028176 -2.15379669876e-22)
(1.34413425443 -0.0529744973463 8.70080478403e-23)
(1.31810581848 -0.0692453617141 -1.44268467124e-21)
(1.29302599471 -0.0791209059548 -8.57275455197e-22)
(1.26249717151 -0.0845534880246 1.13148331818e-22)
(1.23614352377 -0.0791396045702 -9.09005280736e-22)
(1.20949202097 -0.0617291557209 -1.8204723343e-21)
(1.19038741659 -0.0421639015957 4.32566620023e-22)
(1.17248054646 -0.016592051586 -9.68185884284e-24)
(1.16518014414 0.0103447500026 -1.88496822241e-22)
(1.1686611826 0.0429238064036 2.69676034947e-24)
(1.1762056224 0.0719824010565 0)
(1.19154813243 0.105508446319 1.86685587642e-22)
(1.21443981768 0.130221284339 -5.0888137192e-22)
(1.25240635192 0.149491026093 1.48049783478e-21)
(1.29059072985 0.160882666432 -6.47433768745e-22)
(1.33770946674 0.167521338084 -3.19206682741e-21)
(1.38019267974 0.156110863187 -4.91761928714e-23)
(1.42697815997 0.123499496773 2.20431072095e-21)
(1.46472025406 0.0854262964551 0)
(1.50286417791 0.0318285697334 6.070744468e-21)
(1.51981261085 -0.0246271968894 -4.82173225319e-21)
(1.51760048847 -0.0985403247666 2.15911023589e-21)
(1.50532672646 -0.164100816396 5.66127019636e-21)
(1.47597971115 -0.234211293176 -4.61823391674e-21)
(1.43296492242 -0.277313163329 -1.22753016353e-21)
(1.37295624177 -0.300856891519 1.37803481486e-22)
(1.32438917491 -0.31215417788 2.14986611509e-21)
(1.27558630655 -0.318257417672 -2.73892690335e-22)
(1.23959290453 -0.314476591971 -4.47308422513e-22)
(1.20426261398 -0.30318032162 -8.0252967434e-23)
(1.17782526643 -0.294857668267 -1.98173582731e-23)
(1.15092920655 -0.288019018025 2.63227466344e-23)
(1.13051392936 -0.280245340446 4.85400623729e-23)
(1.10910903792 -0.269354895946 1.10166876922e-22)
(1.09086014957 -0.261807594107 -2.65696534529e-22)
(1.070582619 -0.255312118675 1.29297189063e-21)
(1.05385520723 -0.248331746193 4.13221883235e-23)
(1.03486928724 -0.238221302026 -2.06647363991e-21)
(1.01835785616 -0.230265430561 1.23941971418e-23)
(0.99920391556 -0.222497350814 -1.20583485249e-21)
(0.983274826941 -0.213654122144 1.08491840995e-21)
(0.965494130248 -0.200573917155 1.41222966763e-21)
(0.949556788189 -0.189495922665 -5.41790953436e-22)
(0.930749624336 -0.177305818522 0)
(0.916352292572 -0.163756244969 2.27428343887e-21)
(0.900693428823 -0.144688336329 -2.21747336498e-21)
(0.887593287388 -0.127365247496 -6.37918003989e-23)
(0.871774615393 -0.107102161921 3.97116626342e-21)
(0.861704624674 -0.0865609028035 1.46542249267e-21)
(0.854399179105 -0.0595072813659 6.94442826197e-22)
(0.846056252627 -0.0315220531095 0)
(0.843444753971 -0.00563041520147 -1.93699746042e-21)
(0.834611826564 0.00507847751162 -9.41298089659e-21)
(0.806716134532 0.00530932875033 -2.72863162575e-21)
(0.7672212102 0.00526495580492 -8.44831650089e-22)
(0.731278260497 0.0048747224885 7.41174613707e-22)
(0.709690450035 0.0176586679739 -5.66538654821e-22)
(0.679289275745 0.0433031014879 1.39320679758e-21)
(0.643160995588 0.0569303418451 0)
(0.597824799453 0.0605656313799 -5.95354603658e-22)
(0.561967607899 0.0710796932415 -8.06593850104e-23)
(0.533307828906 0.0831529320769 -1.2095557561e-21)
(0.526280951127 0.108044904531 1.11053057886e-21)
(0.560680090399 0.0904244205878 6.7988263128e-21)
(0.632858764194 0.0841666048392 -9.1766019451e-21)
(0.73993849295 0.0826845727838 1.65611247661e-21)
(0.897252254933 0.0972832091897 -3.83611499203e-21)
(1.06679663724 0.0563042760231 8.56741125468e-21)
(1.2029315637 0.0428564236587 1.32601083325e-20)
(1.31836039874 0.0365252344117 -1.21819664311e-20)
(1.41371239801 0.0488047219359 -7.61573749453e-22)
(1.45594167067 0.0216579146586 -1.02725744856e-21)
(1.4500585619 0.0198803409655 2.22856980643e-22)
(1.42234406275 0.0282641356378 -7.55938577576e-22)
(1.39024367221 0.0553152646085 -9.38022672042e-22)
(1.35951412823 0.0604509427026 -3.0762777729e-21)
(1.32323479107 0.0614736333556 6.66228079085e-22)
(1.27370377658 0.0604982028463 -3.73959638921e-21)
(1.23526517337 0.0559057383205 2.58843149955e-21)
(1.19957078484 0.0484059508292 6.48171153653e-21)
(1.00012088623 0.000137144680529 1.53002192743e-21)
(1.00014610845 -0.000178033489773 1.50669372665e-21)
(1.15887711633 -0.00018724895315 0)
(1.23255967477 0.0178228985826 6.5324136873e-22)
(1.00003766116 0.000466801053153 -7.31114241526e-22)
(1.00003646295 0.000639793071816 0)
(1.00010540035 0.000897099726185 6.65084649512e-21)
(0.999997643191 0.000823030555199 -2.6918853367e-21)
(1.00005447723 0.00160339005829 5.17775005256e-22)
(0.999972536559 0.0015474717949 1.14077909057e-21)
(1.00003840102 0.00246994257557 -3.80764219492e-21)
(1.00004678383 0.002022385021 -4.40960439459e-21)
(1.00000644825 0.00285646557484 -5.55653402877e-22)
(1.0000488887 0.00211110259359 -3.11706911586e-21)
(0.999947249758 0.00249377056496 8.70277143975e-21)
(1.00001200151 0.00141545587297 -1.25042194639e-20)
(0.999875584017 0.00107064342826 0)
(0.999926386847 8.4756307908e-05 1.36402674526e-20)
(0.999901929987 -0.000784450450309 -5.48260717797e-21)
(0.999989669318 -0.00118138480228 9.96264018838e-21)
(0.99998635091 -0.00209520108632 4.49117219355e-21)
(0.999999585774 -0.00178775094591 0)
(1.00000721519 -0.00244787555875 -1.414848539e-20)
(0.999999164492 -0.00174733656636 1.62626190522e-20)
(1.00002843643 -0.00206505918092 -2.89122770817e-21)
(0.999984942618 -0.00129504189178 7.37040303228e-21)
(1.00001586807 -0.00129974929298 3.28249164669e-21)
(1.0000103194 -0.000619230687204 -1.79755997941e-20)
(1.0000509908 0.00295175884188 -5.28958044543e-21)
(1.00007732468 -0.000360146883378 -7.04364669799e-21)
(1.00108536237 -0.000396882679703 0)
(1.00162945784 -0.00051284163544 5.70553879104e-24)
(1.00275228843 -0.000809919012056 -3.70248634714e-21)
(1.0055131242 -0.000705824850142 1.76859534981e-23)
(1.01181601065 -0.00152631584914 -3.75365896442e-21)
(1.02051855739 -0.00152549921705 -3.63887676164e-23)
(1.03190811621 -0.00260646101236 7.06931098714e-21)
(1.04565477094 -0.00235162768836 -7.4123455235e-21)
(1.0621576331 -0.00370801940808 -6.12539458007e-21)
(1.08070095328 -0.00310728128952 9.04482643989e-21)
(1.10140269291 -0.00454882171259 9.04271256334e-22)
(1.1230355218 -0.00356408606403 1.22292895994e-21)
(1.14544616096 -0.00486065420944 8.85533850004e-22)
(1.16664986916 -0.00339917531263 -3.87112566744e-21)
(1.18646394881 -0.00409924770927 -2.53015320049e-22)
(1.20268061189 -0.00247276562719 0)
(1.21520210256 -0.00233506126064 -9.37953305694e-24)
(1.22242766027 -0.00087138169366 -1.40782667204e-24)
(1.22460845042 8.07354477225e-05 1.52488281609e-21)
(1.22165371836 0.00073243352832 5.82255777226e-21)
(1.2148750542 0.00174612324545 8.94482647806e-22)
(1.2052672753 0.00164488025252 2.22207106859e-21)
(1.19381495768 0.00256607618283 4.81937919184e-22)
(1.18165582012 0.00201483869316 6.06001759685e-22)
(1.16894811301 0.00274198322588 -1.11141268587e-22)
(1.15627033106 0.00210240396884 1.55020463257e-21)
(1.14316303309 0.00281403037425 6.78773812929e-23)
(1.13015875673 0.00219697847393 -5.20651179828e-22)
(1.11727564164 0.00272249361324 -1.79619919526e-22)
(1.10516987808 0.00200545173812 2.03235173538e-21)
(1.09412784432 0.00221958326148 2.48474102693e-21)
(1.0847192241 0.00147284105308 -1.84419639541e-21)
(1.07679311044 0.00157772866505 -7.82797112391e-22)
(1.07019101792 0.00103784665204 6.10431970602e-22)
(1.0643251608 0.00124007832794 -4.99058167787e-21)
(1.0586499031 0.000957832739051 7.36068073373e-21)
(1.05272592149 0.0013414595778 -4.50193459277e-21)
(1.04655050466 0.00105288920047 2.25323793698e-21)
(1.04040128737 0.00129076902854 -1.31800084284e-21)
(1.03512687307 0.000806014619533 7.90698163947e-22)
(1.03153475155 0.000521007478899 0)
(1.03103896504 -0.000161573861513 -6.9019944135e-21)
(1.03412178871 -0.001075664986 -5.27268380733e-21)
(1.04122574962 -0.00139380762205 -7.19670779206e-21)
(1.05271814871 -0.00287474666066 -1.80543072049e-21)
(1.06770186593 -0.00264448305581 2.82842584406e-21)
(1.08564961271 -0.00400380255798 -1.00041386545e-21)
(1.10398004607 -0.00303339376553 1.07212881358e-21)
(1.12190281859 -0.00360669752046 -2.71972260075e-22)
(1.13654850607 -0.00221611952899 9.09721679012e-22)
(1.14790815998 -0.00197080026626 1.95363549615e-21)
(1.15467386361 -0.000868357078937 -7.91157733143e-22)
(1.00003304515 0.00243868297583 1.68561000678e-20)
(1.15789960431 -9.81698879051e-05 0)
(1.1606510769 -6.34857588332e-05 2.73493184062e-23)
(1.16186448453 -2.07713303114e-05 2.30291439464e-23)
(1.16457948202 0.000293501176969 -5.41284206113e-23)
(1.16942561077 0.00259355260743 -1.16735083054e-22)
(1.18254173391 0.00906545102053 1.32781182461e-22)
(1.1972839774 0.023271645594 7.97133223591e-23)
(1.22156925251 0.0493516891539 4.64834956461e-23)
(1.25763110144 0.102173190755 1.314063172e-23)
(1.31810809321 0.201974229792 3.99307458608e-23)
(1.32382069022 0.33067628717 -2.15055429838e-22)
(1.2507895217 0.481486769789 -9.67202285528e-23)
(1.03703206115 0.592166528345 1.05085859107e-21)
(0.772755449803 0.636552987949 0)
(0.556357754708 0.563070304026 -1.03209000975e-21)
(0.399692533569 0.479134191805 0)
(0.316936345822 0.413828101996 4.23754160128e-22)
(0.34036316685 0.4482291892 4.70308177344e-23)
(0.499364066539 0.517801812104 -1.18965698805e-22)
(0.76271851509 0.555898294 1.4848799601e-21)
(0.999983583844 0.516616524633 -1.11071007649e-22)
(1.13281920209 0.405522663777 9.0066969191e-22)
(1.1858540258 0.292732023761 0)
(1.22311076509 0.201561309381 9.26636696758e-22)
(1.25388268281 0.125955911584 -3.90152442057e-22)
(1.00008939582 0.00114793078093 -8.71730632886e-21)
(1.24579526297 0.0525053018565 0)
(1.19306414861 0.0128799344626 -9.12472867017e-22)
(1.17892296185 0.0144938674418 -4.93278157477e-22)
(1.1568899277 0.014385748099 -4.24238086299e-21)
(1.1222921768 0.00813660672133 -1.03817260631e-21)
(1.07613850905 0.008429765218 3.02184833467e-21)
(1.04347944679 0.00393224220356 -4.77934465111e-21)
(1.02072811624 0.0036285051314 1.72119052522e-21)
(1.00802198327 0.00133742063138 6.78354393041e-21)
(1.00203413847 0.000657374487451 -1.8706723216e-21)
(1.00066837059 3.00565325713e-05 1.93153760692e-21)
(1.00104633208 -9.64951435999e-05 -4.70437886036e-21)
(1.00091717824 0.000144841397432 2.89118150744e-21)
(0.999031998438 0.000674974030612 -4.80280402464e-21)
(0.994855881485 0.000868803784348 2.90864107075e-21)
(0.989121923788 0.00133209399938 -3.94725511659e-21)
(0.983103387323 0.000924200384895 7.10902232817e-21)
(0.978434447364 0.000686488636815 -8.04275797872e-22)
(0.976726070157 2.51286947018e-05 -7.98622374239e-22)
(0.97886419192 -0.00107838400151 3.77740359486e-22)
(0.985992901399 -0.00166226019222 3.35661456965e-21)
(0.998162764823 -0.00322002858039 -1.21838230123e-21)
(1.01485875323 -0.00322411090676 6.85857690067e-22)
(1.03589751685 -0.00494715960844 -2.11670748993e-21)
(1.05965674305 -0.00422332940852 -4.07656150448e-21)
(1.08588481639 -0.00575973512216 2.49104997812e-22)
(1.11208223277 -0.00436627393347 2.0651722697e-21)
(1.13792500404 -0.00531016846231 6.74584281122e-22)
(1.16046611187 -0.00344951664158 9.26901894109e-22)
(1.17953407693 -0.00352264215241 8.70876777501e-23)
(1.19309524433 -0.00173564644475 1.83220840204e-22)
(1.20220660712 -0.0013647461723 5.18899034269e-22)
(1.2065656874 -0.000392711670274 1.11498866279e-21)
(1.20799049902 -6.14936097833e-06 1.30349527019e-21)
(1.20706268638 0.000285010827918 1.19092777678e-21)
(1.20505530404 0.000567638975953 -3.82583868816e-23)
(1.20210491353 0.000625286144331 0)
(1.19810232702 0.00110086699892 -1.88393991729e-22)
(1.19230706676 0.00123528644407 2.40733553279e-22)
(1.18426306518 0.00212947512053 -5.58697375067e-23)
(1.17353959806 0.00209195264058 5.39226393079e-22)
(1.16009296109 0.00328296850456 -2.2982963978e-22)
(1.14432689221 0.00281972922029 -1.76116122292e-21)
(1.12667596928 0.00403670859633 -1.28733307541e-21)
(1.10817466587 0.00310957388756 3.58253495027e-21)
(1.08934122839 0.00402394031303 -3.63155981664e-21)
(1.07149692428 0.00278347515298 3.07806298965e-21)
(1.05467841315 0.00341477084351 -3.43297530105e-21)
(1.04003979256 0.0021828885048 1.14813002258e-20)
(1.02726949024 0.00242004197951 -2.56139001788e-21)
(1.01716976164 0.00141130191949 0)
(1.00923399203 0.00140456877203 -2.71958765039e-21)
(1.00388290537 0.000645041983252 0)
(1.17327133587 0.0439174135171 2.59129566878e-22)
(1.00083904482 0.000350225788197 -6.50575885927e-21)
(1.17833151264 0.028291011121 3.80596094001e-22)
(1.17228925289 0.00798602654991 -3.25042478472e-21)
(1.16498464362 -0.011316209386 1.58547461361e-21)
(1.15401942588 -0.0242881151338 -3.21754138824e-23)
(1.13950596543 -0.0333038242562 1.81126830219e-22)
(1.1205029913 -0.0380194349928 1.39513838868e-21)
(1.10164926416 -0.0404963130014 2.29980754942e-21)
(1.08564801672 -0.0376343111884 5.42277781356e-21)
(1.07029221235 -0.0308445730625 -2.28813415817e-21)
(1.05508047268 -0.0173417825858 -3.28340677132e-21)
(1.04071656578 -0.00234923354266 -1.93458346024e-21)
(1.03194926568 0.0139393592295 -7.54957963484e-21)
(1.0268119475 0.0325485900946 -4.35966731438e-21)
(1.02707476662 0.0565426023502 9.96819032659e-22)
(1.02913489893 0.0824804177278 2.38328019754e-21)
(1.03700218479 0.104049216155 -5.86147612388e-21)
(1.05019219614 0.124264914205 1.2851016416e-21)
(1.07184597132 0.143786051522 -1.74146664246e-21)
(1.09645401512 0.161145261158 3.86151828324e-22)
(1.12029908781 0.169141876205 -3.77268569442e-21)
(1.14489949476 0.171659380047 -5.15102523769e-22)
(1.17160628379 0.166010409365 0)
(1.19722054729 0.159945404352 6.89484982716e-23)
(1.21581213352 0.150441001567 9.22273537779e-22)
(1.231433912 0.138149176519 -3.08051686687e-22)
(1.24422946219 0.120221757943 -4.52375370959e-22)
(1.25635174256 0.102705122205 2.54305905592e-21)
(1.26139100317 0.0869855761203 -6.28728908813e-24)
(1.26133461569 0.0708721523981 1.51278217133e-21)
(1.25460031316 0.0549076542148 -1.72213923502e-21)
(1.24648259963 0.0412595917352 -6.82588830799e-22)
(1.23594144863 0.03475851713 -5.87291619546e-21)
(1.22332009585 0.0327295032758 1.83596072769e-23)
(1.20884950962 0.0377867815956 -1.48670533717e-21)
(1.19569819003 0.0465514879145 -1.83133988402e-21)
(1.18730061535 0.0589083903992 1.63671809912e-22)
(1.18257024489 0.0753026396094 1.33145185504e-21)
(1.18405197399 0.0969217694119 5.22616822582e-21)
(1.1889868324 0.12123222509 5.35264415382e-22)
(1.19984550291 0.141445482252 -4.67743988581e-21)
(1.21666506464 0.16076233426 -2.43675313716e-21)
(1.24422791175 0.17695566467 1.3843088734e-21)