/*--------------------------------*- C++ -*----------------------------------*\
| =========                 |                                                 |
| \\      /  F ield         | OpenFOAM: The Open Source CFD Toolbox           |
|  \\    /   O peration     | Version:  v1906                                 |
|   \\  /    A nd           | Web:      www.OpenFOAM.com                      |
|    \\/     M anipulation  |                                                 |
\*---------------------------------------------------------------------------*/
FoamFile
{
    version     2.0;
    format      ascii;
    class       volTensorField;
    location    "0";
    object      dU;
}
// * * * * * * * * * * * * * * * * * * * * * * * * * * * * * * * * * * * * * //

dimensions      [0 0 -1 0 0 0 0];


internalField   nonuniform List<tensor> 
18432
(
(0.000408393424606 -1.50098308805e-05 0 0.00305233183362 -0.000541872936714 0 0 0 0)
(-0.000281792577653 3.11710729928e-05 0 0.00420968763327 0.00034420212676 0 0 0 0)
(-0.00105706082247 1.86152222233e-05 0 -0.00443841863861 0.00117362755489 0 0 0 0)
(-0.00159709805577 1.2174364784e-05 0 -0.0201766100176 0.00179790954526 0 0 0 0)
(-0.00191904179049 5.6824864622e-06 0 -0.0408220582458 0.00214228613602 0 0 0 0)
(-0.00206786374999 2.3714465743e-06 0 -0.0638359833538 0.00231307109833 0 0 0 0)
(-0.00212465046675 4.38592466017e-07 0 -0.0879612739371 0.00237275038348 0 0 0 0)
(-0.00213358953731 -1.52799189283e-07 0 -0.11236699115 0.00238402856789 0 0 0 0)
(-0.00212746175562 -2.8296276631e-07 0 -0.136774843081 0.00237661287424 0 0 0 0)
(-0.00211887871822 -1.54584142064e-07 0 -0.161079658041 0.00236753431134 0 0 0 0)
(-0.00211335039549 -2.5756988582e-08 0 -0.1853000899 0.00236141534872 0 0 0 0)
(-0.00211069785513 6.60373209014e-08 0 -0.209464308756 0.00235866520797 0 0 0 0)
(-0.0021096900239 9.58114501808e-08 0 -0.233597562144 0.00235762724476 0 0 0 0)
(-0.00210878366804 8.46215971112e-08 0 -0.257706425951 0.00235670091824 0 0 0 0)
(-0.00210701265617 4.86075285936e-08 0 -0.28178546509 0.00235477628528 0 0 0 0)
(-0.00210387987962 3.94821847516e-09 0 -0.305821327806 0.00235131902249 0 0 0 0)
(-0.00209929157213 -4.02955936684e-08 0 -0.32979820254 0.00234622997957 0 0 0 0)
(-0.00209337429971 -7.89678787603e-08 0 -0.353700806742 0.00233964876731 0 0 0 0)
(-0.00208636728157 -1.10122223619e-07 0 -0.377516138071 0.00233185053251 0 0 0 0)
(-0.00207854560428 -1.33295149699e-07 0 -0.401234174703 0.00232313630137 0 0 0 0)
(-0.00207018290556 -1.4892917303e-07 0 -0.424847979355 0.00231381962582 0 0 0 0)
(-0.00206153482106 -1.57548992147e-07 0 -0.448353579017 0.00230417817665 0 0 0 0)
(-0.00205283416816 -1.59880950336e-07 0 -0.471749697024 0.00229448096677 0 0 0 0)
(-0.00204429184803 -1.56402316876e-07 0 -0.495037519053 0.00228495457062 0 0 0 0)
(-0.00203609966379 -1.47747317231e-07 0 -0.518220441063 0.00227582373962 0 0 0 0)
(-0.00202843372617 -1.34174620306e-07 0 -0.541303898176 0.00226727401995 0 0 0 0)
(-0.00202145803668 -1.16082582043e-07 0 -0.564295186337 0.00225950087061 0 0 0 0)
(-0.00201532516671 -9.36500894855e-08 0 -0.587203366233 0.00225266275659 0 0 0 0)
(-0.00201018148466 -6.71464384883e-08 0 -0.610039105062 0.00224693563374 0 0 0 0)
(-0.00200616298577 -3.68699354648e-08 0 -0.632814693374 0.00224246056067 0 0 0 0)
(-0.00200340230193 -2.63893118406e-09 0 -0.655543806257 0.00223939430524 0 0 0 0)
(-0.00200204091095 3.56787198145e-08 0 -0.678241665589 0.00223788599031 0 0 0 0)
(-0.00200218724048 7.64368675297e-08 0 -0.700925040615 0.00223807756539 0 0 0 0)
(-0.00200396736977 1.22170059532e-07 0 -0.723611575563 0.00224006908337 0 0 0 0)
(-0.00200755853657 1.72888109994e-07 0 -0.746320839607 0.00224411292186 0 0 0 0)
(-0.00201312697218 2.28148276187e-07 0 -0.769074339915 0.00225033745191 0 0 0 0)
(-0.00202078376272 2.85688451053e-07 0 -0.791895274398 0.00225893796435 0 0 0 0)
(-0.00203066113422 3.48912945717e-07 0 -0.814807648759 0.00226996649076 0 0 0 0)
(-0.00204299333021 4.19470169599e-07 0 -0.837837625627 0.00228378800591 0 0 0 0)
(-0.0020579908461 4.94961740592e-07 0 -0.861014282915 0.00230055171497 0 0 0 0)
(-0.00207581889662 5.75237644297e-07 0 -0.884368385534 0.0023205134719 0 0 0 0)
(-0.0020966142636 6.59328571162e-07 0 -0.907932662939 0.00234377271696 0 0 0 0)
(-0.00212062893108 7.5448822343e-07 0 -0.931740980246 0.00237062150308 0 0 0 0)
(-0.00214824009447 8.60088613168e-07 0 -0.955831581812 0.00240151082641 0 0 0 0)
(-0.00217976437801 9.73894448588e-07 0 -0.980246448664 0.00243675961611 0 0 0 0)
(-0.00221541520299 1.09268404857e-06 0 -1.00503069662 0.00247665182168 0 0 0 0)
(-0.00225538381454 1.21969362784e-06 0 -1.0302310029 0.00252133826578 0 0 0 0)
(-0.00230010659927 1.36406962436e-06 0 -1.05589674262 0.0025713364811 0 0 0 0)
(-0.00235003713373 1.51913163222e-06 0 -1.08208387392 0.00262720987589 0 0 0 0)
(-0.00240565143821 1.69130449202e-06 0 -1.10885147489 0.00268932466998 0 0 0 0)
(-0.00246706668254 1.8580979939e-06 0 -1.13626545927 0.00275816802944 0 0 0 0)
(-0.00253445235365 2.04602697841e-06 0 -1.16438736251 0.00283332103751 0 0 0 0)
(-0.00260852547651 2.25272251864e-06 0 -1.1932866128 0.0029163299313 0 0 0 0)
(-0.00268927508509 2.45152476185e-06 0 -1.22303915469 0.00300658772473 0 0 0 0)
(-0.00277714310139 2.68626499915e-06 0 -1.25371399419 0.0031047529068 0 0 0 0)
(-0.00287217733669 2.89594997111e-06 0 -1.28539539811 0.00321133398366 0 0 0 0)
(-0.0029739785187 3.12286641295e-06 0 -1.318152288 0.00332484990544 0 0 0 0)
(-0.0030829865408 3.35698540537e-06 0 -1.35205954018 0.00344709553294 0 0 0 0)
(-0.00319813348525 3.54667767309e-06 0 -1.38719292942 0.00357583500211 0 0 0 0)
(-0.00331904143693 3.76579722692e-06 0 -1.42360313405 0.00371093593302 0 0 0 0)
(-0.00344456698658 3.90626612197e-06 0 -1.46135486441 0.00385193338545 0 0 0 0)
(-0.00357313514695 4.0573104303e-06 0 -1.50047165139 0.00399507695216 0 0 0 0)
(-0.00370377581146 4.14612962188e-06 0 -1.54098154506 0.00414221644108 0 0 0 0)
(-0.00383353508132 4.16011015625e-06 0 -1.58288277299 0.00428673410874 0 0 0 0)
(-0.00396008449064 4.1261037941e-06 0 -1.62613693699 0.00442917408532 0 0 0 0)
(-0.0040802416681 3.9753170653e-06 0 -1.67068748036 0.00456335866246 0 0 0 0)
(-0.00419009600423 3.73635098165e-06 0 -1.71642324558 0.00468695050569 0 0 0 0)
(-0.00428541187452 3.35504872899e-06 0 -1.76319912882 0.00479372341244 0 0 0 0)
(-0.00436131928186 2.85088137964e-06 0 -1.81080826378 0.00487926313139 0 0 0 0)
(-0.00441272362305 2.18148197539e-06 0 -1.85899647563 0.0049372296334 0 0 0 0)
(-0.00443374366299 1.34548395375e-06 0 -1.90744299289 0.00496143538382 0 0 0 0)
(-0.00441835696862 3.25757992535e-07 0 -1.95576373174 0.00494489056505 0 0 0 0)
(-0.00436024185051 -8.82252960013e-07 0 -2.00350534883 0.00488071214384 0 0 0 0)
(-0.00425308528612 -2.28414662986e-06 0 -2.05014574806 0.00476166694 0 0 0 0)
(-0.00409050082544 -3.88842704694e-06 0 -2.09509471617 0.00458078250263 0 0 0 0)
(-0.0038658040333 -5.71410392565e-06 0 -2.13769304555 0.00433050364512 0 0 0 0)
(-0.0035725064203 -7.74573534869e-06 0 -2.17720956145 0.00400362738297 0 0 0 0)
(-0.00320692650717 -9.85543163095e-06 0 -2.21285215549 0.00359530846783 0 0 0 0)
(-0.00277016606614 -1.18472249398e-05 0 -2.24381670267 0.00310660056017 0 0 0 0)
(-0.00225886629287 -1.37940296225e-05 0 -2.26932765965 0.00253750023739 0 0 0 0)
(-0.00166125454967 -1.69302117483e-05 0 -2.28848685832 0.00187572748091 0 0 0 0)
(-0.000984261336943 -1.95930396339e-05 0 -2.30031033183 0.00110638349386 0 0 0 0)
(-0.000231532396917 -2.12176311201e-05 0 -2.30414084527 0.000271637631311 0 0 0 0)
(0.000599113775933 -2.36262147037e-05 0 -2.29898140902 -0.000654771482826 0 0 0 0)
(0.00149888495035 -2.59073999923e-05 0 -2.28410280567 -0.00166171330758 0 0 0 0)
(0.00246193419353 -2.78116793074e-05 0 -2.25878432613 -0.00273797938972 0 0 0 0)
(0.00348026225483 -2.9533906637e-05 0 -2.22241248028 -0.0038766115898 0 0 0 0)
(0.00454437444278 -3.09165297473e-05 0 -2.17444719163 -0.00506662174924 0 0 0 0)
(0.00564249741013 -3.19929651987e-05 0 -2.11448594479 -0.00629427922397 0 0 0 0)
(0.00676363023439 -3.27126435873e-05 0 -2.04224874145 -0.00754839184994 0 0 0 0)
(0.00789423279192 -3.30003665008e-05 0 -1.95757622026 -0.00881279772703 0 0 0 0)
(0.00902076466834 -3.29127950461e-05 0 -1.86048244521 -0.0100727549991 0 0 0 0)
(0.0101302194027 -3.23793517174e-05 0 -1.75110212717 -0.0113140241045 0 0 0 0)
(0.0112082447792 -3.14466383534e-05 0 -1.62972914054 -0.0125195685758 0 0 0 0)
(0.0122424410288 -3.00986454155e-05 0 -1.49680754159 -0.0136769741749 0 0 0 0)
(0.013219774409 -2.8362918555e-05 0 -1.3528950694 -0.0147698419242 0 0 0 0)
(0.0141288393342 -2.62870021988e-05 0 -1.19871286794 -0.015787259538 0 0 0 0)
(0.0149597215825 -2.3879529008e-05 0 -1.03506071688 -0.0167164654889 0 0 0 0)
(0.0157029082869 -2.12159225817e-05 0 -0.862867209919 -0.0175480454883 0 0 0 0)
(0.0163518588431 -1.83035862688e-05 0 -0.683133673506 -0.0182734989307 0 0 0 0)
(0.0169011002044 -1.53113417573e-05 0 -0.496923835732 -0.0188875741148 0 0 0 0)
(0.017347246564 -1.24235871497e-05 0 -0.305351595547 -0.0193898804582 0 0 0 0)
(0.0176882654026 -9.10363766127e-06 0 -0.109542683576 -0.0197693849449 0 0 0 0)
(0.0179239807995 -5.77906837587e-06 0 0.0893313746585 -0.0200324881381 0 0 0 0)
(0.0180569754534 -2.86818694948e-06 0 0.290153449265 -0.0201815456824 0 0 0 0)
(0.0180909171709 4.50062659307e-08 0 0.491823283386 -0.0202193157646 0 0 0 0)
(0.0180313965802 2.76380810498e-06 0 0.693288602624 -0.020152682563 0 0 0 0)
(0.017884401126 5.30480253027e-06 0 0.893574764548 -0.0199885159605 0 0 0 0)
(0.0176591274559 7.49765824751e-06 0 1.09176039535 -0.0197355162767 0 0 0 0)
(0.0173624602199 9.55687618994e-06 0 1.28706743219 -0.019405656698 0 0 0 0)
(0.0170076481566 1.10367465806e-05 0 1.47872549053 -0.0190048287622 0 0 0 0)
(0.0165994238864 1.26388478599e-05 0 1.66623715006 -0.0185552294012 0 0 0 0)
(0.016157811212 1.31639660504e-05 0 1.84894088977 -0.018049098004 0 0 0 0)
(0.0156789998472 1.45517859482e-05 0 2.026759238 -0.017534118019 0 0 0 0)
(0.0151981005994 1.36552438913e-05 0 2.19896628174 -0.0169622895753 0 0 0 0)
(0.0146877566003 1.55411651225e-05 0 2.36621358863 -0.0164472797004 0 0 0 0)
(0.0142208248088 1.21048587823e-05 0 2.52723010676 -0.0158348673713 0 0 0 0)
(0.0137088453292 1.6306687293e-05 0 2.68416997049 -0.015408166022 0 0 0 0)
(0.0133224724976 7.47464946817e-06 0 2.83396495436 -0.0147421303987 0 0 0 0)
(0.0128144643356 1.86183241287e-05 0 2.98227869725 -0.0145500114373 0 0 0 0)
(0.0126135554052 -3.05822978131e-06 0 3.12098607902 -0.013722986732 0 0 0 0)
(0.0120510617199 2.70528924349e-05 0 3.26456376808 -0.0140624214745 0 0 0 0)
(0.0122549061779 -2.73453284761e-05 0 3.39116662262 -0.0127312032522 0 0 0 0)
(0.011389167037 5.46520111441e-05 0 3.5384631706 -0.0142904982049 0 0 0 0)
(0.0125883697121 -8.73337439548e-05 0 3.64691428242 -0.0115024012386 0 0 0 0)
(0.0099377482195 0.000176362287427 0 3.81861088652 -0.0157317247466 0 0 0 0)
(0.0173107254107 -0.000583042858436 0 3.87553040636 -0.00969968528088 0 0 0 0)
(0.0152088015332 -0.000984394521931 0 4.18607305818 -0.0328946346144 0 0 0 0)
(0.000853382574719 -1.92474393025e-05 0 0.00188603354253 -0.000824045256659 0 0 0 0)
(-0.00102287891806 0.000268373767485 0 0.0013999378567 0.00103965759889 0 0 0 0)
(-0.00318716666544 0.00023539407813 0 -0.00757079950057 0.00310651788008 0 0 0 0)
(-0.00473471255628 0.000157086542691 0 -0.0230075894588 0.00464299005642 0 0 0 0)
(-0.00567889986476 8.43534303493e-05 0 -0.0430012319336 0.00554563340292 0 0 0 0)
(-0.00613576044916 3.79111559485e-05 0 -0.0653578746421 0.00599788098124 0 0 0 0)
(-0.00632128340234 1.19705811071e-05 0 -0.0888739643529 0.00617455910924 0 0 0 0)
(-0.00636159654954 8.32273562116e-07 0 -0.112755382112 0.00621578898132 0 0 0 0)
(-0.00635020281415 -2.59749042711e-06 0 -0.136688477471 0.00620401138209 0 0 0 0)
(-0.00632617736288 -2.50181591923e-06 0 -0.160541948957 0.00618117701663 0 0 0 0)
(-0.00630722333198 -1.52594538759e-06 0 -0.184305542062 0.00616264044215 0 0 0 0)
(-0.00629467773363 -7.30530585124e-07 0 -0.207991556764 0.00615052192553 0 0 0 0)
(-0.00628602002338 -4.41771041365e-07 0 -0.23161588077 0.00614201973717 0 0 0 0)
(-0.00627745820784 -5.85514539988e-07 0 -0.255182285609 0.00613360497216 0 0 0 0)
(-0.00626649249625 -9.91654689516e-07 0 -0.27868556373 0.00612280354521 0 0 0 0)
(-0.00625181513032 -1.49982570357e-06 0 -0.302114346834 0.00610837022293 0 0 0 0)
(-0.00623318406598 -2.00134015053e-06 0 -0.325455318095 0.00609007595082 0 0 0 0)
(-0.0062109615492 -2.43596056323e-06 0 -0.348695727327 0.00606827360467 0 0 0 0)
(-0.00618582369227 -2.77742617849e-06 0 -0.371824887022 0.00604363189736 0 0 0 0)
(-0.00615855070481 -3.01948922842e-06 0 -0.394834804759 0.00601690564182 0 0 0 0)
(-0.00612992143488 -3.16578489292e-06 0 -0.417720287467 0.00598886323623 0 0 0 0)
(-0.00610066519721 -3.22357189985e-06 0 -0.440478841983 0.00596020802577 0 0 0 0)
(-0.00607144679187 -3.20105044842e-06 0 -0.463110435882 0.0059315980593 0 0 0 0)
(-0.00604286835884 -3.10547919239e-06 0 -0.485617284133 0.00590361161662 0 0 0 0)
(-0.00601547750277 -2.94339040092e-06 0 -0.508003617655 0.00587679380541 0 0 0 0)
(-0.00598977671304 -2.7196463622e-06 0 -0.530275525276 0.00585162335973 0 0 0 0)
(-0.00596623283154 -2.43857950543e-06 0 -0.552440788059 0.00582856826476 0 0 0 0)
(-0.00594527987948 -2.10342037269e-06 0 -0.574508785204 0.00580804017157 0 0 0 0)
(-0.00592733347488 -1.71694007002e-06 0 -0.596490355442 0.00579045660549 0 0 0 0)
(-0.00591278099258 -1.28219186109e-06 0 -0.618397796396 0.00577618554516 0 0 0 0)
(-0.00590199984789 -7.97950082543e-07 0 -0.640244672314 0.00576560204183 0 0 0 0)
(-0.00589538690843 -2.6694339866e-07 0 -0.662045937848 0.00575908620511 0 0 0 0)
(-0.00589325525829 3.03923253467e-07 0 -0.683817911944 0.00575696500581 0 0 0 0)
(-0.00589596601533 9.31385323827e-07 0 -0.705577780123 0.00575954494116 0 0 0 0)
(-0.00590401403239 1.62038906759e-06 0 -0.727344408975 0.00576737086168 0 0 0 0)
(-0.00591786442695 2.36139581395e-06 0 -0.749138397815 0.00578083055568 0 0 0 0)
(-0.00593784089838 3.14335776342e-06 0 -0.770981833666 0.00580032290478 0 0 0 0)
(-0.00596432712081 3.99249198828e-06 0 -0.792897639423 0.00582610958251 0 0 0 0)
(-0.00599797130027 4.92412028365e-06 0 -0.814910638268 0.00585894405561 0 0 0 0)
(-0.00603936368061 5.92159676034e-06 0 -0.837048175948 0.00589930251409 0 0 0 0)
(-0.00608897441059 6.97636489162e-06 0 -0.859339170045 0.00594772445642 0 0 0 0)
(-0.00614720621788 8.09575150652e-06 0 -0.881814261421 0.00600454483622 0 0 0 0)
(-0.00621476664781 9.33386876388e-06 0 -0.90450526595 0.00607045822139 0 0 0 0)
(-0.00629269043614 1.06960627735e-05 0 -0.927447701836 0.00614651952391 0 0 0 0)
(-0.00638185645289 1.2155382596e-05 0 -0.95068036543 0.00623353220371 0 0 0 0)
(-0.00648286838785 1.36857004896e-05 0 -0.974244763796 0.00633215142438 0 0 0 0)
(-0.00659627613899 1.53245891693e-05 0 -0.998183844062 0.0064428258694 0 0 0 0)
(-0.00672325781529 1.7134906778e-05 0 -1.02254293896 0.0065667510321 0 0 0 0)
(-0.00686504781279 1.90970017558e-05 0 -1.0473727154 0.0067051910625 0 0 0 0)
(-0.00702290179192 2.11909599586e-05 0 -1.07272665711 0.00685916888174 0 0 0 0)
(-0.00719713003028 2.3302364258e-05 0 -1.09866336623 0.0070294225852 0 0 0 0)
(-0.00738817430927 2.55894605973e-05 0 -1.12523812083 0.00721563648617 0 0 0 0)
(-0.00759782329211 2.80217552727e-05 0 -1.15251209364 0.00742046138397 0 0 0 0)
(-0.00782601430635 3.04711358469e-05 0 -1.1805509663 0.00764311080187 0 0 0 0)
(-0.00807375201231 3.30880151913e-05 0 -1.20941481162 0.0078847467012 0 0 0 0)
(-0.00834097273397 3.55603001659e-05 0 -1.2391740671 0.00814588259456 0 0 0 0)
(-0.00862644123348 3.80698877388e-05 0 -1.26988637637 0.00842401316677 0 0 0 0)
(-0.00893090713346 4.04949247997e-05 0 -1.30161210485 0.00872148129056 0 0 0 0)
(-0.00925122732526 4.25508992557e-05 0 -1.33440969206 0.00903391689732 0 0 0 0)
(-0.00958585175765 4.4472237098e-05 0 -1.36831576712 0.00936015888419 0 0 0 0)
(-0.00993119830601 4.57362270902e-05 0 -1.40337347298 0.00969771024517 0 0 0 0)
(-0.0102824612261 4.66567565858e-05 0 -1.4395908022 0.0100393992355 0 0 0 0)
(-0.0106362039337 4.68064264307e-05 0 -1.47697350984 0.0103854988375 0 0 0 0)
(-0.0109838172393 4.59696135464e-05 0 -1.51549927604 0.0107234776744 0 0 0 0)
(-0.0113180938289 4.41958746698e-05 0 -1.55511058045 0.0110502083976 0 0 0 0)
(-0.011629553575 4.10512402015e-05 0 -1.59572887624 0.0113531499738 0 0 0 0)
(-0.0119066978484 3.64979748849e-05 0 -1.63722558551 0.011623616395 0 0 0 0)
(-0.012137106941 3.02279547579e-05 0 -1.67943738788 0.0118476086804 0 0 0 0)
(-0.0123066711906 2.220134637e-05 0 -1.72214470066 0.0120126403918 0 0 0 0)
(-0.0124006645255 1.21511117514e-05 0 -1.76508227958 0.012103519802 0 0 0 0)
(-0.0124023642802 -3.50786611517e-08 0 -1.8079246898 0.01210441439 0 0 0 0)
(-0.0122947261242 -1.44614355169e-05 0 -1.8502889508 0.0119983673497 0 0 0 0)
(-0.0120600595579 -3.11658924351e-05 0 -1.8917306401 0.0117683551213 0 0 0 0)
(-0.011680865159 -5.01583751357e-05 0 -1.93174517694 0.0113970872918 0 0 0 0)
(-0.0111396763021 -7.14865453816e-05 0 -1.969769627 0.0108677476689 0 0 0 0)
(-0.0104186572623 -9.51713119888e-05 0 -2.00518367458 0.0101628510618 0 0 0 0)
(-0.00950118273669 -0.000120754168274 0 -2.03731066007 0.00926626113173 0 0 0 0)
(-0.00837824957482 -0.000146920804364 0 -2.06543011355 0.00816826731725 0 0 0 0)
(-0.0070516303372 -0.000173024195059 0 -2.08881636557 0.00687171789506 0 0 0 0)
(-0.00550830019391 -0.000201323459327 0 -2.10675202431 0.00536770984658 0 0 0 0)
(-0.00372381936034 -0.000233163332739 0 -2.11835581915 0.00362015370542 0 0 0 0)
(-0.00173326914742 -0.000260714326525 0 -2.1229144082 0.00167513723207 0 0 0 0)
(0.000469357890306 -0.000286542792587 0 -2.11987502528 -0.000474472538748 0 0 0 0)
(0.00289442941481 -0.000314217762533 0 -2.10826100622 -0.00284082570022 0 0 0 0)
(0.0055025813964 -0.000338113204632 0 -2.08752112373 -0.00538881869173 0 0 0 0)
(0.00827953819679 -0.000359214528738 0 -2.05705850264 -0.00809966794541 0 0 0 0)
(0.0112018653367 -0.000377361031258 0 -2.01638344343 -0.0109528470559 0 0 0 0)
(0.0142423470568 -0.000391528492221 0 -1.96507846214 -0.0139212477927 0 0 0 0)
(0.0173675036132 -0.000401647034111 0 -1.90284696176 -0.0169715147378 0 0 0 0)
(0.0205460274631 -0.000407342847419 0 -1.82950800475 -0.020074439037 0 0 0 0)
(0.0237402976341 -0.000408071558072 0 -1.74498488711 -0.0231920346064 0 0 0 0)
(0.0269126917143 -0.000404111674534 0 -1.64935281773 -0.0262881532012 0 0 0 0)
(0.0300275373897 -0.00039513376362 0 -1.54279144035 -0.029328319901 0 0 0 0)
(0.0330453692676 -0.000381409640835 0 -1.42561325291 -0.0322727639272 0 0 0 0)
(0.0359326854747 -0.00036306725218 0 -1.29826387211 -0.0350907980175 0 0 0 0)
(0.0386543181312 -0.000340341303317 0 -1.16127338204 -0.0377457485853 0 0 0 0)
(0.0411795683797 -0.0003138198072 0 -1.01531689761 -0.0402099501317 0 0 0 0)
(0.0434822664315 -0.000283756117787 0 -0.861123886024 -0.0424562252353 0 0 0 0)
(0.0455368652132 -0.000250818859465 0 -0.699533447291 -0.0444606918015 0 0 0 0)
(0.0473264017809 -0.000215729004271 0 -0.531441778272 -0.0462057685044 0 0 0 0)
(0.0488367703142 -0.000179733342519 0 -0.357790875847 -0.0476841703065 0 0 0 0)
(0.0500605813945 -0.000141631451571 0 -0.179539396747 -0.0488701912232 0 0 0 0)
(0.0509898276034 -0.000103160748706 0 0.00226596064768 -0.0497778435297 0 0 0 0)
(0.0516261941539 -6.62272956943e-05 0 0.18665798702 -0.0503994090174 0 0 0 0)
(0.0519795135052 -2.97658317593e-05 0 0.372647716356 -0.0507435765277 0 0 0 0)
(0.0520573860298 5.00564579147e-06 0 0.559278534586 -0.0508187518153 0 0 0 0)
(0.0518760799268 3.75686522159e-05 0 0.74563695216 -0.0506412405662 0 0 0 0)
(0.0514523827992 6.75883645906e-05 0 0.930875385326 -0.0502276765623 0 0 0 0)
(0.0508112957261 9.43457772261e-05 0 1.11419555323 -0.0496003917938 0 0 0 0)
(0.049972204773 0.000118113136526 0 1.29491568388 -0.0487837585955 0 0 0 0)
(0.048970680136 0.000137556853982 0 1.47237054592 -0.0478010974075 0 0 0 0)
(0.0478209356512 0.000154348908574 0 1.64611111904 -0.0466877563004 0 0 0 0)
(0.0465759948428 0.000165254938967 0 1.81557512432 -0.0454571513639 0 0 0 0)
(0.0452284841609 0.000175334141519 0 1.98065600816 -0.0441680176461 0 0 0 0)
(0.0438700965245 0.000176256187066 0 2.14076178729 -0.0427990668514 0 0 0 0)
(0.0424333962922 0.000181430679524 0 2.29637075872 -0.0414675159691 0 0 0 0)
(0.0411068607524 0.00016948878509 0 2.4464872741 -0.0400582364591 0 0 0 0)
(0.039666405796 0.00017457718265 0 2.5927819966 -0.0388372578263 0 0 0 0)
(0.0385517574888 0.000142551937625 0 2.73287324217 -0.0374521921605 0 0 0 0)
(0.0371306824401 0.000159332857281 0 2.87120562323 -0.036542112001 0 0 0 0)
(0.0365072224309 8.84661625187e-05 0 3.00144048373 -0.0351682953037 0 0 0 0)
(0.0349638810231 0.000145918947253 0 3.13498937803 -0.0348914684868 0 0 0 0)
(0.0354063080353 -1.19547116456e-05 0 3.25470300778 -0.0333410716155 0 0 0 0)
(0.0331146754928 0.000159179138937 0 3.39034320424 -0.0343172456223 0 0 0 0)
(0.0361588943034 -0.000162937308774 0 3.49504007814 -0.03202950901 0 0 0 0)
(0.0298503078037 0.000135164162823 0 3.6494053198 -0.0350229333608 0 0 0 0)
(0.0466116762482 -0.00240765387482 0 3.71862168203 -0.0334531440055 0 0 0 0)
(0.0387989814658 -0.00305296435118 0 3.95830960318 -0.0576590816106 0 0 0 0)
(0.000986451794463 2.36760911267e-05 0 0.00102313435619 -0.00100176702214 0 0 0 0)
(-0.00195761104643 0.000729296243856 0 -0.000982963035519 0.00198554383059 0 0 0 0)
(-0.00537733341563 0.000658634751975 0 -0.0103780082703 0.0053180880988 0 0 0 0)
(-0.00786745910169 0.000445448400683 0 -0.0256215631151 0.00781249715644 0 0 0 0)
(-0.00941384205372 0.000246400785803 0 -0.0450695640487 0.00932102620961 0 0 0 0)
(-0.0101861432642 0.000114132401466 0 -0.0668286146119 0.0100932225749 0 0 0 0)
(-0.0105129219407 3.91788160279e-05 0 -0.0897665322641 0.0104117176453 0 0 0 0)
(-0.0105957868951 5.09626827697e-06 0 -0.113129868989 0.0104961096064 0 0 0 0)
(-0.0105847763852 -6.42544636315e-06 0 -0.136582548416 0.010484483274 0 0 0 0)
(-0.0105462051617 -7.50604358033e-06 0 -0.159972282318 0.0104470097475 0 0 0 0)
(-0.0105110091484 -5.47845628288e-06 0 -0.183264432972 0.0104120584035 0 0 0 0)
(-0.0104836540459 -3.60662641555e-06 0 -0.206456816353 0.0103850384202 0 0 0 0)
(-0.0104614115236 -2.91981417555e-06 0 -0.229556633009 0.0103628583823 0 0 0 0)
(-0.0104390135846 -3.33952246241e-06 0 -0.252564764778 0.0103405174017 0 0 0 0)
(-0.0104128190633 -4.44436343019e-06 0 -0.27547607754 0.010314374393 0 0 0 0)
(-0.0103808977904 -5.81960478007e-06 0 -0.298281008555 0.0102825579702 0 0 0 0)
(-0.0103429120232 -7.1724103278e-06 0 -0.320968642267 0.0102447423344 0 0 0 0)
(-0.0102994535917 -8.33818791587e-06 0 -0.343528722969 0.0102015126232 0 0 0 0)
(-0.0102516033769 -9.24360256389e-06 0 -0.365952886552 0.0101539483329 0 0 0 0)
(-0.0102006084331 -9.87047999709e-06 0 -0.388235197333 0.0101032757123 0 0 0 0)
(-0.0101477152268 -1.02284021943e-05 0 -0.41037224406 0.0100507373582 0 0 0 0)
(-0.0100940923309 -1.03374918098e-05 0 -0.432363045087 0.00999747983813 0 0 0 0)
(-0.0100408054523 -1.02206902826e-05 0 -0.454208841527 0.00994456789045 0 0 0 0)
(-0.00998881969519 -9.89853565495e-06 0 -0.47591289629 0.00989294575309 0 0 0 0)
(-0.00993901215744 -9.38934539621e-06 0 -0.49748029076 0.00984349310312 0 0 0 0)
(-0.00989218697118 -8.70707739654e-06 0 -0.518917769789 0.00979699241281 0 0 0 0)
(-0.00984909019812 -7.86404751331e-06 0 -0.540233598499 0.00975419548363 0 0 0 0)
(-0.00981041530444 -6.86939688638e-06 0 -0.561437464719 0.00971577514092 0 0 0 0)
(-0.0097768249073 -5.73115469551e-06 0 -0.582540366653 0.00968239985315 0 0 0 0)
(-0.0097489371284 -4.45715892741e-06 0 -0.603554588799 0.00965467033927 0 0 0 0)
(-0.0097273546173 -3.04508034655e-06 0 -0.624493552915 0.00963318973522 0 0 0 0)
(-0.00971270611045 -1.50332751888e-06 0 -0.645371913331 0.00961857206288 0 0 0 0)
(-0.00970549468678 1.53397239113e-07 0 -0.666205522498 0.009611339138 0 0 0 0)
(-0.00970629708632 1.96630328954e-06 0 -0.687011027793 0.0096120098926 0 0 0 0)
(-0.0097158943628 3.94983822807e-06 0 -0.707806535697 0.00962142675778 0 0 0 0)
(-0.00973502237908 6.0776396011e-06 0 -0.728611690058 0.00964024183537 0 0 0 0)
(-0.00976420328652 8.32507204986e-06 0 -0.749447435485 0.00966906693502 0 0 0 0)
(-0.00980405334062 1.07584873839e-05 0 -0.770335492138 0.00970838347336 0 0 0 0)
(-0.00985558902258 1.34176188011e-05 0 -0.791299232048 0.00975933398618 0 0 0 0)
(-0.00991974505373 1.62620942286e-05 0 -0.81236420902 0.0098227290472 0 0 0 0)
(-0.00999726950999 1.92666753756e-05 0 -0.833557405739 0.00989939987747 0 0 0 0)
(-0.0100888118934 2.24579595292e-05 0 -0.854907269028 0.0099899252633 0 0 0 0)
(-0.0101954868299 2.59709983582e-05 0 -0.876443334002 0.0100954099747 0 0 0 0)
(-0.0103189060063 2.98245181884e-05 0 -0.898198243804 0.0102175012428 0 0 0 0)
(-0.0104604452141 3.39452959741e-05 0 -0.920207492216 0.0103574937445 0 0 0 0)
(-0.0106210519528 3.82671304071e-05 0 -0.942508852084 0.0105164044523 0 0 0 0)
(-0.0108015940729 4.28891890339e-05 0 -0.965141296316 0.0106949889261 0 0 0 0)
(-0.011003872867 4.79653552626e-05 0 -0.988145769215 0.0108950815986 0 0 0 0)
(-0.0112297831172 5.34583551691e-05 0 -1.01156746472 0.0111186231388 0 0 0 0)
(-0.0114812034548 5.9281056369e-05 0 -1.03545395386 0.0113672344561 0 0 0 0)
(-0.0117585678323 6.51734644225e-05 0 -1.05985650549 0.0116418499114 0 0 0 0)
(-0.0120624996597 7.15014495695e-05 0 -1.08482350721 0.0119422258974 0 0 0 0)
(-0.0123955537529 7.81790172531e-05 0 -1.11040757595 0.012271919755 0 0 0 0)
(-0.0127575234569 8.49153307223e-05 0 -1.13666408251 0.0126299022122 0 0 0 0)
(-0.0131496891651 9.19844822279e-05 0 -1.16364328668 0.0130176326184 0 0 0 0)
(-0.0135716664344 9.86747903821e-05 0 -1.19140215381 0.0134353984266 0 0 0 0)
(-0.0140212722075 0.000105352802362 0 -1.21998620758 0.0138795391472 0 0 0 0)
(-0.0144990818235 0.000111677265862 0 -1.2494410357 0.0143524637212 0 0 0 0)
(-0.0149998259811 0.000116974679014 0 -1.279807994 0.0148474685931 0 0 0 0)
(-0.0155204155044 0.000121650504128 0 -1.31110851044 0.015361881192 0 0 0 0)
(-0.0160546367822 0.000124530259426 0 -1.34336518431 0.0158907099294 0 0 0 0)
(-0.016594296227 0.00012619386108 0 -1.37656927428 0.0164229784972 0 0 0 0)
(-0.0171330542138 0.000125617264413 0 -1.41070498166 0.0169565823023 0 0 0 0)
(-0.017656759741 0.000122183858045 0 -1.44572969395 0.0174727566372 0 0 0 0)
(-0.0181531312108 0.000115918252043 0 -1.48156669457 0.0179638561297 0 0 0 0)
(-0.0186064108327 0.000105765026217 0 -1.5181166607 0.0184104717983 0 0 0 0)
(-0.0189976868799 9.14933393882e-05 0 -1.55523390159 0.0187968347201 0 0 0 0)
(-0.0193066208312 7.23745797312e-05 0 -1.59273837339 0.0191006337842 0 0 0 0)
(-0.0195103093582 4.82160825607e-05 0 -1.6303987423 0.0193007014014 0 0 0 0)
(-0.0195849303189 1.83816821952e-05 0 -1.66794062024 0.0193725106118 0 0 0 0)
(-0.0195037752926 -1.74433911177e-05 0 -1.70503568902 0.019290212155 0 0 0 0)
(-0.0192397747628 -5.94874687837e-05 0 -1.74130433665 0.0190266508794 0 0 0 0)
(-0.0187651002026 -0.000107814061797 0 -1.77631349262 0.0185545866724 0 0 0 0)
(-0.01805248039 -0.000162391555543 0 -1.80957880227 0.0178468030035 0 0 0 0)
(-0.0170750652786 -0.00022326242982 0 -1.84056758766 0.016877016725 0 0 0 0)
(-0.0158060681264 -0.000290323971834 0 -1.86870177107 0.0156186534995 0 0 0 0)
(-0.0142213041399 -0.000362179261806 0 -1.89336224957 0.0140478707202 0 0 0 0)
(-0.0123084404351 -0.000435329387265 0 -1.91390079838 0.0121518356095 0 0 0 0)
(-0.0100691145317 -0.00050944404613 0 -1.92967394477 0.0099363450203 0 0 0 0)
(-0.00747233683094 -0.000591515761855 0 -1.94002876437 0.00735992717686 0 0 0 0)
(-0.00450734596933 -0.000672934204593 0 -1.94400347348 0.00441285957667 0 0 0 0)
(-0.00123923134498 -0.000746993473294 0 -1.94152898447 0.00119992242179 0 0 0 0)
(0.00237527220894 -0.000823481242908 0 -1.93160665757 -0.00239228770569 0 0 0 0)
(0.00633788567056 -0.000896620788695 0 -1.91365012526 -0.00631133752411 0 0 0 0)
(0.0105725337851 -0.000960070846164 0 -1.88718550514 -0.0105049149452 0 0 0 0)
(0.0150625480203 -0.00101616299055 0 -1.85174312084 -0.0149481357625 0 0 0 0)
(0.0197681708629 -0.00106361017485 0 -1.80695472021 -0.019605068539 0 0 0 0)
(0.0246457470024 -0.00109997831826 0 -1.75252128005 -0.0244317806243 0 0 0 0)
(0.0296416570376 -0.00112492720522 0 -1.68824819934 -0.0293744636571 0 0 0 0)
(0.0347060029584 -0.00113758478284 0 -1.61405033685 -0.034385306867 0 0 0 0)
(0.0397799442836 -0.00113664445552 0 -1.52992769453 -0.0394045979978 0 0 0 0)
(0.0448046042351 -0.00112278629298 0 -1.43601318117 -0.0443747175136 0 0 0 0)
(0.0497250190845 -0.00109529721297 0 -1.33252608119 -0.0492418414211 0 0 0 0)
(0.0544798008567 -0.00105489663654 0 -1.21979239057 -0.0539436284026 0 0 0 0)
(0.0590180835547 -0.00100211963179 0 -1.0982574292 -0.0584321808159 0 0 0 0)
(0.063286258541 -0.000937529892678 0 -0.968417293208 -0.06265240354 0 0 0 0)
(0.0672376710662 -0.000862862357988 0 -0.830901281609 -0.0665595450383 0 0 0 0)
(0.0708334245625 -0.000778797277198 0 -0.686364044531 -0.0701150170015 0 0 0 0)
(0.0740345275966 -0.000687114161346 0 -0.535555510067 -0.0732800101013 0 0 0 0)
(0.0768162588383 -0.000590774805365 0 -0.37926735993 -0.0760345981519 0 0 0 0)
(0.0791621614292 -0.000488469512385 0 -0.218294176868 -0.0783451066613 0 0 0 0)
(0.0810502007084 -0.000384225767204 0 -0.0535301317667 -0.0802116719802 0 0 0 0)
(0.0824769485242 -0.000280674900382 0 0.11417567677 -0.0816265088282 0 0 0 0)
(0.0834525197598 -0.000177258272851 0 0.283993554259 -0.082587920645 0 0 0 0)
(0.0839812295144 -7.73135903679e-05 0 0.455065528675 -0.0831101366005 0 0 0 0)
(0.0840801653832 1.824883767e-05 0 0.626580067449 -0.0832067480307 0 0 0 0)
(0.0837741907081 0.000107766939157 0 0.797760016993 -0.082903210202 0 0 0 0)
(0.083089668676 0.000190186661377 0 0.96788322517 -0.0822259067754 0 0 0 0)
(0.0820651154118 0.000263965040043 0 1.1362709834 -0.0812104576773 0 0 0 0)
(0.0807309459734 0.000329138358508 0 1.30233866627 -0.0798933819566 0 0 0 0)