/*--------------------------------*- C++ -*----------------------------------*\
| =========                 |                                                 |
| \\      /  F ield         | OpenFOAM: The Open Source CFD Toolbox           |
|  \\    /   O peration     | Version:  v1906                                 |
|   \\  /    A nd           | Web:      www.OpenFOAM.com                      |
|    \\/     M anipulation  |                                                 |
\*---------------------------------------------------------------------------*/
FoamFile
{
    version     2.0;
    format      ascii;
    class       volScalarField;
    location    "0";
    object      p;
}
// * * * * * * * * * * * * * * * * * * * * * * * * * * * * * * * * * * * * * //

dimensions      [0 2 -2 0 0 0 0];


internalField   nonuniform List<scalar> 
18432
(
-0.168392818676
-0.168479468797
-0.168577954741
-0.168676651265
-0.168752298267
-0.168807676002
-0.16884244811
-0.168860964511
-0.16886504246
-0.168856208206
-0.168834585639
-0.168799788211
-0.168750979675
-0.16868720138
-0.168607468203
-0.168510844641
-0.16839647209
-0.168263564954
-0.168111414433
-0.167939369047
-0.167746837018
-0.167533266167
-0.167298149642
-0.167041005968
-0.166761387516
-0.166458860056
-0.166133014195
-0.165783443642
-0.165409758143
-0.165011561156
-0.164588463966
-0.164140064858
-0.16366596132
-0.16316572461
-0.162638930063
-0.162085110359
-0.161503790267
-0.160894437288
-0.160256519605
-0.159589432165
-0.158892544248
-0.158165146091
-0.157406489501
-0.156615758005
-0.155792050724
-0.154934369143
-0.154041607396
-0.153112561914
-0.152145909388
-0.151140142036
-0.15009362937
-0.149004433603
-0.147870596595
-0.146689711923
-0.145459217904
-0.144176247885
-0.142837400283
-0.141439204416
-0.139977428453
-0.138447571765
-0.136844669341
-0.135162885728
-0.133396444788
-0.131538168716
-0.129581084026
-0.127516922478
-0.125337366672
-0.123033155469
-0.120594840718
-0.118012403973
-0.115275670264
-0.112374296581
-0.109298083315
-0.106037114826
-0.102582102865
-0.0989246013121
-0.095057431414
-0.0909751665117
-0.0866748183793
-0.0821554483421
-0.0774170260922
-0.0724609883612
-0.0672986363559
-0.0619411354545
-0.0564020448307
-0.0506998968192
-0.0448565209714
-0.03889757616
-0.0328521499018
-0.026752132495
-0.0206324176127
-0.0145298926524
-0.00848306470624
-0.00253164049055
0.0032846193178
0.00892585120077
0.0143536098277
0.0195306987493
0.0244224863166
0.0289969456313
0.033225441933
0.0370829220628
0.0405484261256
0.0436050561322
0.0462402665722
0.0484455913763
0.050216866985
0.051553717867
0.0524593058925
0.0529405507959
0.0530059945283
0.052669083352
0.0519405028083
0.0508406390208
0.0493766215719
0.0475797055059
0.0454420099072
0.0430188154736
0.0402613489037
0.0372853733152
0.0339383220419
0.0304928138448
0.0265328470623
0.0227420255784
0.0180203471916
0.014155900297
0.00818247334601
0.0056653720632
-0.168396526311
-0.16847594426
-0.168568465772
-0.168662668414
-0.168735575085
-0.168789537071
-0.168823718573
-0.168842072398
-0.168846166125
-0.168837396975
-0.168815836385
-0.168781087047
-0.168732317822
-0.168668579018
-0.16858889197
-0.16849232475
-0.168378019235
-0.168245189004
-0.168093123129
-0.167921168149
-0.167728729809
-0.16751525412
-0.16728023203
-0.167023180652
-0.166743650447
-0.166441206114
-0.166115436536
-0.16576593459
-0.165392308402
-0.164994160781
-0.164571101458
-0.164122728101
-0.163648636731
-0.163148398188
-0.162621585753
-0.162067731509
-0.1614863585
-0.160876933947
-0.160238923366
-0.159571720908
-0.158874693642
-0.15814713145
-0.157388283355
-0.156597330761
-0.155773369633
-0.15491540044
-0.154022314987
-0.153092907291
-0.152125849684
-0.151119632375
-0.150072622296
-0.148982882605
-0.147848448406
-0.14666691552
-0.145435718959
-0.144151992607
-0.142812339859
-0.141413287529
-0.139950614203
-0.138419825201
-0.136815964034
-0.135133214732
-0.133365806005
-0.131506592722
-0.129548616091
-0.127483642529
-0.125303383284
-0.12299861753
-0.120559935301
-0.117977362773
-0.115240771501
-0.112339867763
-0.109264501172
-0.106004805433
-0.102551540125
-0.0988963072577
-0.0950319704778
-0.0909531264604
-0.0866567821415
-0.0821420168598
-0.0774089664608
-0.0724588016889
-0.0673028172734
-0.0619524356915
-0.0564209244947
-0.050726804039
-0.0448918423142
-0.0389416171894
-0.0329051212137
-0.0268141560072
-0.0207035086118
-0.0146099620786
-0.00857192524715
-0.00262899315814
0.00317916021077
0.00881277297981
0.0142334767981
0.0194041488837
0.0242902244073
0.0288597256996
0.0330840227579
0.0369380824471
0.0404011106387
0.0434560113705
0.046090280781
0.0482954360852
0.0500672649116
0.0514053435685
0.0523127700391
0.0527963975519
0.0528646955756
0.052531023644
0.0518060041751
0.050709901528
0.0492498285652
0.0474568366443
0.045323158022
0.0429036652849
0.040150022724
0.0371770816211
0.033833493298
0.030389753688
0.0264329089756
0.0226416273652
0.0179230451199
0.0140540192681
0.00807972708414
0.00552888710203
-0.168398046849
-0.168471098872
-0.168557082383
-0.16864628414
-0.168715973139
-0.168768232094
-0.168801647899
-0.168819764451
-0.168823850693
-0.16881515492
-0.168793677706
-0.168759003927
-0.168710303392
-0.168646634308
-0.168567024076
-0.168470544379
-0.168356337502
-0.168223616105
-0.168071666883
-0.167899834191
-0.167707520987
-0.167494171286
-0.16725927354
-0.167002343308
-0.166722928884
-0.166420593808
-0.166094924997
-0.165745514443
-0.165371968417
-0.164973889079
-0.164550884336
-0.16410255128
-0.163628484214
-0.163128253521
-0.162601430245
-0.16204754581
-0.161466121361
-0.16085662366
-0.160218515453
-0.159551189958
-0.158854011801
-0.158126270467
-0.157367211718
-0.156576015033
-0.155751772634
-0.154893484267
-0.154000038679
-0.153070227744
-0.15210271909
-0.151096000907
-0.150048438182
-0.148958093657
-0.147822997968
-0.146640748097
-0.145408776648
-0.14412422065
-0.14278368604
-0.141383703203
-0.139920059562
-0.138388270059
-0.13678339154
-0.135099625346
-0.133331217192
-0.13147104965
-0.12951219194
-0.127446443626
-0.125265555353
-0.122960348692
-0.120521460271
-0.117938965433
-0.115202788692
-0.112302690246
-0.109228573908
-0.105970626013
-0.102519657111
-0.0988673179176
-0.0950065118318
-0.0909318494853
-0.0866403207044
-0.0821311496425
-0.0774046065929
-0.07246088979
-0.0673125136401
-0.0619703724307
-0.056447530615
-0.0507625443892
-0.0449370980341
-0.0389966774547
-0.0329701717948
-0.0268892800593
-0.0207886764612
-0.0147050301741
-0.00867664566092
-0.00274300042103
0.00305632440594
0.00868166443889
0.0140947420224
0.0192584935958
0.0241384348924
0.0287026104941
0.0329223916929
0.0367729647392
0.0402333452662
0.0432864238455
0.0459197588111
0.0481248071774
0.0498973098759
0.0512367909181
0.0521462776969
0.0526325612813
0.0527040148511
0.0523739439768
0.0516528346323
0.050560942767
0.0491051578669
0.047316655493
0.0451872278834
0.0427722213199
0.040022297933
0.0370536936617
0.033712577808
0.0302732343677
0.0263162610728
0.0225306182351
0.0178059953865
0.013947043729
0.00794572067648
0.00542885121456
-0.168396429378
-0.16846529944
-0.168545752694
-0.168630481813
-0.168697126928
-0.168747681315
-0.168780271196
-0.168798091097
-0.168802135873
-0.168793506156
-0.168772125776
-0.168737553299
-0.168688952955
-0.168625386344
-0.168545884513
-0.168449521668
-0.168335440173
-0.168202851896
-0.16805104136
-0.167879351075
-0.167687181444
-0.167473974804
-0.167239217286
-0.166982423181
-0.166703138735
-0.166400926598
-0.166075371813
-0.165726065734
-0.165352612848
-0.16495461492
-0.164531678057
-0.164083399074
-0.163609370544
-0.163109162605
-0.162582344218
-0.162028446445
-0.161446988549
-0.160837436983
-0.160199252011
-0.159531826255
-0.158834521984
-0.158106628531
-0.157347388455
-0.156555980175
-0.15573149234
-0.154872924609
-0.153979162479
-0.153048996726
-0.152081090872
-0.151073932218
-0.150025884457
-0.148935009525
-0.147799336644
-0.146616463624
-0.145383822408
-0.14409855558
-0.142757269729
-0.141356504498
-0.139892054072
-0.1383594457
-0.136753751777
-0.135069188001
-0.133300024577
-0.131439165093
-0.129479712211
-0.127413494288
-0.125232302311
-0.122926995969
-0.120488256198
-0.117906202847
-0.115170807707
-0.11227187773
-0.109199362848
-0.10594349254
-0.102495118046
-0.0988459256319
-0.0949888408003
-0.0909184603837
-0.0866317785694
-0.0821284940007
-0.0774081213976
-0.0724700996674
-0.067329446449
-0.0619949319088
-0.0564801291348
-0.0508035203831
-0.0449867111211
-0.0390551026911
-0.0330374943384
-0.0269654933824
-0.0208736802253
-0.0147986271994
-0.00877855816953
-0.00285285782663
0.00293897383857
0.00855732574807
0.0139640133158
0.0191219981324
0.0239968623054
0.0285566005228
0.0327728392056
0.0366206051786
0.040078799159
0.043130489758
0.045763164068
0.0479682415068
0.0497414266479
0.0510821989503
0.0519935292357
0.052482159399
0.0525563806108
0.052229465704
0.0515117693051
0.0504235794088
0.0489715363626
0.0471870307314
0.0450613065497
0.0426504036387
0.0399036677924
0.0369392603375
0.0336000551206
0.0301654381952
0.0262075715702
0.0224287863733
0.0176968029011
0.0138495481582
0.0078256068132
0.00536924421982
-0.168391976816
-0.168458518439
-0.1685344054
-0.168615165967
-0.168678953805
-0.168727806932
-0.168759520296
-0.168776988716
-0.168780962172
-0.168772393592
-0.168751125771
-0.168716682391
-0.16866821595
-0.168604786834
-0.16852542733
-0.168429212966
-0.168315285853
-0.168182857108
-0.168031209324
-0.167859683442
-0.167667677603
-0.167454632732
-0.167220032886
-0.166963391303
-0.166684252396
-0.166382178109
-0.166056751799
-0.165707564344
-0.165334218623
-0.164936316154
-0.164513461391
-0.164065251053
-0.163591276104
-0.163091106522
-0.162564309469
-0.162010415812
-0.161428943108
-0.160819357493
-0.160181117193
-0.159513614417
-0.158816209357
-0.158088191247
-0.157328799712
-0.156537212727
-0.155712515838
-0.154853709005
-0.153959674582
-0.153029203004
-0.152060954548
-0.151053416647
-0.150004952548
-0.148913622981
-0.147777458828
-0.146594058504
-0.145360855295
-0.144074999519
-0.142733097301
-0.141331702553
-0.139866615214
-0.138333377193
-0.136727078935
-0.135041948267
-0.133272286568
-0.131411013532
-0.129451269373
-0.127384908489
-0.125203762341
-0.122898725367
-0.120460520072
-0.117879306544
-0.11514509793
-0.112247740755
-0.10917722263
-0.105923806479
-0.102478373583
-0.0988326324229
-0.0949795076873
-0.0909135455272
-0.0866319871853
-0.0821350467053
-0.077419380591
-0.0724877270615
-0.0673544334924
-0.062027029221
-0.0565196796059
-0.050850734411
-0.0450417255651
-0.0391179771554
-0.0331082102608
-0.0270439538374
-0.0209597145123
-0.0148919856029
-0.00887893130856
-0.00295988615967
0.00282574438553
0.00843835634257
0.0138398248977
0.0189931922613
0.0238639985429
0.0284203080106
0.0326338000123
0.0364792904735
0.0399358780975
0.0429865826769
0.045618855721
0.047824090075
0.0495979630806
0.0509399172112
0.0518528821066
0.0523435604866
0.0524201819201
0.0520959963097
0.051381252231
0.0502962754031
0.0488474896706
0.0470664947837
0.0449440366732
0.0425368117178
0.0397929508213
0.0368324126537
0.0334950397105
0.0300649025578
0.0261065353438
0.0223342157654
0.0175965222585
0.0137591226071
0.0077239248272
0.00533322406701
-0.168384996413
-0.168450729819
-0.168522820217
-0.168600008417
-0.168661075282
-0.168708214983
-0.16873900149
-0.168756069353
-0.168759947666
-0.168751440026
-0.168730303808
-0.168696019746
-0.168647722966
-0.168584468384
-0.168505287302
-0.168409255397
-0.168295514191
-0.168163274022
-0.168011815758
-0.167840478979
-0.167648659841
-0.167435798053
-0.167201375851
-0.166944905572
-0.166665930029
-0.166364010576
-0.166038729102
-0.165689676099
-0.165316453052
-0.164918661307
-0.164495903847
-0.164047777403
-0.163573871511
-0.163073755966
-0.162546996464
-0.16199312376
-0.161411653949
-0.160802052724
-0.16016377676
-0.159496217927
-0.158798734715
-0.158070616185
-0.157311099328
-0.156519362137
-0.155694487607
-0.154835476303
-0.15394120759
-0.153010472128
-0.152041927877
-0.151034063307
-0.149985242309
-0.148893523716
-0.147756943367
-0.146573099971
-0.145339430268
-0.144053094736
-0.142710697889
-0.141308813214
-0.139843245813
-0.138309554667
-0.136702851628
-0.135017374261
-0.133247462913
-0.131386048785
-0.129426314621
-0.12736013875
-0.125179394201
-0.122875007541
-0.120437740996
-0.117857791501
-0.115125208569
-0.112229871928
-0.109161799229
-0.105911277894
-0.102469209548
-0.0988273115603
-0.094978477667
-0.0909172253098
-0.0866416325502
-0.0821506330081
-0.0774385873566
-0.0725147941165
-0.0673882522929
-0.0620677033176
-0.0565674211823
-0.0509056372671
-0.0451038119316
-0.0391871984441
-0.0331844566908
-0.0271270392259
-0.0210494075164
-0.0149880094425
-0.00898092880299
-0.00306750907281
0.00271292296082
0.00832087860712
0.013718018928
0.018867795453
0.0237353956333
0.0282890792505
0.0325003460418
0.0363441546978
0.0397995867329
0.0428496273836
0.0454817103659
0.0476872058421
0.049461772425
0.0508048220932
0.0517192574588
0.0522117503227
0.0522904874626
0.0519687033123
0.0512565642838
0.050174436221
0.048728559054
0.0469507302748
0.0448312519407
0.042427427887
0.0396862910825
0.0367294396673
0.0333939941937
0.0299682165432
0.0260099411884
0.0222437970983
0.0175023217597
0.0136738851386
0.00763676219116
0.0053120505648
-0.168375923042
-0.168441727795
-0.168510958026
-0.168584948951
-0.168643428409
-0.168688850864
-0.168718669511
-0.168735295799
-0.168739060853
-0.168730617929
-0.168709635189
-0.168675542928
-0.168627453605
-0.168564412544
-0.168485447886
-0.168389634261
-0.168276112245
-0.168144091329
-0.167992850868
-0.167821729263
-0.167630120988
-0.167417464713
-0.167183241145
-0.166926961854
-0.166648168321
-0.166346421403
-0.166021301783
-0.165672399625
-0.165299315278
-0.164901649957
-0.1644790054
-0.16403097843
-0.16355715738
-0.163057111782
-0.162530406259
-0.161976571489
-0.161395122431
-0.160785524107
-0.160147232211
-0.159479638297
-0.158782099615
-0.158053904908
-0.157294288848
-0.156502429873
-0.155677409089
-0.154818227947
-0.153923763014
-0.152992805651
-0.152024012537
-0.151015874118
-0.149966756274
-0.14887471492
-0.147737794589
-0.146553593843
-0.145319555179
-0.144032852051
-0.142690085907
-0.141287855775
-0.13982197142
-0.138288011381
-0.136681113081
-0.134995520728
-0.133225622866
-0.131364357009
-0.129404954258
-0.127339314649
-0.125159354385
-0.122856029438
-0.120420140065
-0.117841916651
-0.11511144003
-0.112218616525
-0.109153485938
-0.105906350935
-0.102468123643
-0.0988305143644
-0.0949863619754
-0.0909304308089
-0.0866614789521
-0.0821745273714
-0.0774681414537
-0.0725519171328
-0.0674318687341
-0.0621179866751
-0.0566244432523
-0.0509693827093
-0.0451741912078
-0.039264055977
-0.033267627579
-0.0272162459896
-0.0211443642203
-0.0150884657201
-0.00908646458882
-0.00317763904181
0.0025984015937
0.00820286144791
0.0135966965787
0.0187436096044
0.0236087319265
0.0281604019265
0.0323700545997
0.0362126797571
0.0396673326874
0.0427169805183
0.0453490462568
0.0475548793079
0.0493301287235
0.0506741824054
0.0515899301587
0.0520840208998
0.0521646169453
0.0518449448507
0.0511351112314
0.0500555260308
0.0486122739009
0.0468373441551
0.044720639215
0.0423200367406
0.0395815636187
0.0366283398273
0.0332950100366
0.0298736381483
0.0259161232336
0.022156141191
0.0174128125316
0.0135933644466
0.00756198671845
0.00530188237607
-0.168364690688
-0.168431809405
-0.168498866605
-0.1685700368
-0.168626078465
-0.168669796846
-0.168698620072
-0.168714773179
-0.168718412984
-0.168710042586
-0.168689238069
-0.168655372408
-0.168607530393
-0.168544743734
-0.168466035256
-0.168370477295
-0.168257209119
-0.168125439276
-0.167974445838
-0.167803566212
-0.167612193532
-0.167399765617
-0.167165761972
-0.166909693548
-0.166631100796
-0.166329544177
-0.166004603459
-0.165655868541
-0.165282938932
-0.164885415741
-0.164462899726
-0.164014987878
-0.163541267595
-0.163041308021
-0.162514673153
-0.161960893628
-0.161379483646
-0.160769907262
-0.160131619827
-0.159464012593
-0.158766442121
-0.158038196636
-0.157278508808
-0.156486557964
-0.155661424092
-0.15480210986
-0.153907489206
-0.152976354641
-0.15200736271
-0.150999006914
-0.149949656689
-0.14885736369
-0.147720185391
-0.146535719667
-0.145301417261
-0.14401446792
-0.14267146813
-0.141269049252
-0.139803025203
-0.138268996639
-0.1366621315
-0.134976676671
-0.13320707959
-0.131346278094
-0.129387558107
-0.127322838902
-0.125144081653
-0.122842268604
-0.120408236135
-0.117832244337
-0.115104399832
-0.112214628246
-0.109152982951
-0.105909771899
-0.102475906979
-0.098843074435
-0.0950040928627
-0.0909544106845
-0.0866908989925
-0.082208492922
-0.0775095700995
-0.072599940532
-0.0674863178836
-0.0621789187139
-0.0566917907892
-0.0510430454775
-0.0452539899259
-0.0393497399708
-0.0333590114469
-0.0273129961162
-0.0212460978976
-0.0151948722249
-0.00919717264446
-0.0032914928243
0.00248134724086
0.008082956558
0.0134743392609
0.0186190038599
0.0234823593668
0.0280326072776
0.0322411786151
0.0360830404826
0.0395372341533
0.0425867116646
0.0452188897336
0.0474251002193
0.049200992799
0.0505459380448
0.051462827898
0.0519582964851
0.0520405005924
0.051722666323
0.0510148634267
0.0499375496349
0.0484966836213
0.0467244402121
0.0446103674385
0.0422128825701
0.0394771002066
0.0365275432865
0.0331966306996
0.0297798371859
0.0258238971065
0.0220702412724
0.0173271706858
0.0135169799593
0.00749861396466
0.00529983240377
-0.168351500986
-0.168421057479
-0.168486611418
-0.16855533774
-0.168609105444
-0.168651149634
-0.168678964091
-0.168694622775
-0.16869813233
-0.168689846895
-0.16866924855
-0.168635646713
-0.16858809387
-0.168525604255
-0.168447193255
-0.168351929673
-0.168238951085
-0.168107465004
-0.167956748456
-0.167786138061
-0.167595025973
-0.167382849384
-0.167149086948
-0.166893249167
-0.166614875792
-0.166313527007
-0.165988781979
-0.165640230419
-0.165267471305
-0.164870105696
-0.164447733624
-0.163999952365
-0.163526348657
-0.163026491118
-0.16249994358
-0.161946236719
-0.161364884374
-0.160755349297
-0.160117087155
-0.159449488963
-0.158751911186
-0.158023641325
-0.157263910294
-0.156471898832
-0.155646686662
-0.154787278097
-0.153892544535
-0.152961280088
-0.151992142395
-0.150983629316
-0.149934115607
-0.148841646962
-0.147704298594
-0.146519667072
-0.145285214029
-0.143998149448
-0.142655062328
-0.141252624193
-0.139786652493
-0.138252772661
-0.136646188916
-0.134961145832
-0.133192162089
-0.13133216893
-0.129374514142
-0.127311133551
-0.125134035179
-0.122834223949
-0.120402570125
-0.117829359401
-0.115104718049
-0.112218583002
-0.109161011848
-0.105922307135
-0.102493368743
-0.0988658510878
-0.0950327106224
-0.0909892567575
-0.0867308138159
-0.0822550563218
-0.0775630275854
-0.0726598564351
-0.0675526294851
-0.0622515732797
-0.0567706086985
-0.0511278700934
-0.0453446032774
-0.039445859864
-0.0334602146565
-0.0274190421339
-0.0213563272176
-0.0153078896021
-0.00931320763559
-0.00341030253377
0.00236016359357
0.00795938396117
0.0133490059418
0.0184921984744
0.023354401454
0.0279037517836
0.0321116782051
0.0359531168123
0.039407100365
0.0424565652037
0.0450889276646
0.0472955065004
0.0490719632366
0.0504176582729
0.0513355014485
0.0518321201755
0.0519156854331
0.0515994297674
0.0508934100901
0.0498181343077
0.0483794665213
0.0466097578744
0.0444982519645
0.0421038648379
0.0393709036678
0.0364251598024
0.0330971025787
0.0296851894845
0.0257318213887
0.0219848085862
0.017244357906
0.0134436210319
0.00744553216774
0.00530307626378
-0.168336600171
-0.168409561805
-0.168474274639
-0.168540928033
-0.168592596145
-0.168633011628
-0.168659818539
-0.168674972826
-0.168678354992
-0.168670172198
-0.16864981148
-0.168616513159
-0.168569293225
-0.168507144797
-0.168429073798
-0.168334144286
-0.168221491768
-0.168090322637
-0.167939913124
-0.167769599292
-0.167578772703
-0.167366870168
-0.16713336987
-0.166877782065
-0.166599646147
-0.166298522171
-0.165973989027
-0.165625636344
-0.165253062889
-0.164855869738
-0.164433656457
-0.163986020769
-0.163512549022
-0.163012809151
-0.162486365305
-0.161932748336
-0.16135147213
-0.160741997736
-0.16010378184
-0.159436215335
-0.158738655235
-0.15801038809
-0.157250643213
-0.156458603369
-0.15563334896
-0.154773886503
-0.153879084815
-0.152947740063
-0.151978512274
-0.150969905269
-0.149920301078
-0.148827737282
-0.147690312296
-0.146505620632
-0.145271137605
-0.143984098123
-0.142641080338
-0.14123880501
-0.139773092309
-0.138239595172
-0.136633560785
-0.134949225109
-0.133181192385
-0.131322379134
-0.129366202679
-0.127304612399
-0.125129665077
-0.122832384258
-0.120403671421
-0.117833833324
-0.115113009098
-0.112231138365
-0.109178272723
-0.105944697739
-0.10252128904
-0.0988996751738
-0.0950728302781
-0.0910355641736
-0.086783463736
-0.0823145092299
-0.0776292592267
-0.0727326898756
-0.0676318986209
-0.062337192556
-0.0568624099584
-0.0512254971685
-0.045447733449
-0.0395541912844
-0.0335719310332
-0.0275339893799
-0.0214743598272
-0.0154286054522
-0.00943633739464
-0.00353610885915
0.00223261261885
0.00783036386523
0.0132188547873
0.0183611747086
0.0232227210217
0.0277715932584
0.0319792029304
0.0358204608185
0.0392743921769
0.0423239186988
0.0449564641213
0.047163339512
0.0489402306088
0.050286495237
0.0512050777872
0.0517026069585
0.0517872884717
0.0514723675423
0.0507679133603
0.0496944849183
0.0482578851563
0.0464906293849
0.0443817109918
0.0419904979
0.039260604124
0.0363189418462
0.0329943277591
0.0295877455166
0.0256381389526
0.0218982528949
0.0171630316528
0.0133717916163
0.00740125949172
0.00530887734617
-0.168320235346
-0.168397462927
-0.168461964452
-0.168526905119
-0.168576656532
-0.168615503914
-0.168641319574
-0.168655971611
-0.168659237873
-0.16865118113
-0.168631093178
-0.168598140464
-0.168551298782
-0.168489536799
-0.168411849086
-0.16831729381
-0.168205004055
-0.168074185036
-0.167924112451
-0.167754122076
-0.167563605284
-0.167351998796
-0.167118780719
-0.166863461301
-0.166585579937
-0.166284696735
-0.165960390636
-0.165612251324
-0.16523987768
-0.164842870895
-0.164420830314
-0.163973354322
-0.163500029144
-0.163000421856
-0.162474097409
-0.161920587046
-0.161339405118
-0.160730010508
-0.160091861635
-0.159424349471
-0.158726832277
-0.157998595412
-0.157238866591
-0.156446831354
-0.155621571829
-0.154762097451
-0.153867274238
-0.152935900862
-0.151966641093
-0.150958006702
-0.149908389138
-0.148815815125
-0.147678412542
-0.146493772916
-0.145259388168
-0.143972523718
-0.142629742354
-0.14122782468
-0.139762592436
-0.138229728819
-0.13662453168
-0.134941220405
-0.133174501417
-0.131317266747
-0.129363011774
-0.127303695899
-0.125131426326
-0.122837241101
-0.120412069428
-0.11784623405
-0.115129879414
-0.112252938572
-0.109205446014
-0.105977657205
-0.102560410839
-0.0989452914644
-0.0951251871831
-0.0910946771067
-0.0868494881942
-0.0823874829799
-0.077709271399
-0.0728195933614
-0.0677254948319
-0.0624372148058
-0.0569687558226
-0.051336790252
-0.0455626633905
-0.0396729036417
-0.0336940210764
-0.027659091493
-0.0216021667157
-0.015559502669
-0.00956910519817
-0.00367044085747
0.00209713804236
0.00769405130553
0.0130819215175
0.0182238064425
0.0230850585804
0.0276337431339
0.0318412396202
0.0356824411649
0.0391363677274
0.0421859293535
0.0448185666325
0.0470255894327
0.048802721357
0.050149325795
0.0510683993553
0.0515665799712
0.0516521295653
0.0513383115477
0.050635233615
0.049563505247
0.0481289034796
0.0463640929039
0.0442578744571
0.0418700161147
0.0391435599495
0.0362063823195
0.0328859576642
0.029485321412
0.0255408641063
0.0218087684398
0.0170816268394
0.0132997810267
0.00736405759102
0.00531459604339
-0.168302670152
-0.168384940994
-0.1684498195
-0.168513393798
-0.168561418452
-0.168598773093
-0.168623629315
-0.168637794085
-0.168640965167
-0.168633063964
-0.168613287648
-0.168580724803
-0.168534307904
-0.168472978192
-0.168395717183
-0.168301576115
-0.168189685338
-0.168059248879
-0.167909542184
-0.167739901055
-0.167549717096
-0.167338427281
-0.167105510041
-0.166850475909
-0.166572864634
-0.166272236608
-0.165948171146
-0.165600258167
-0.165228096977
-0.164831289033
-0.164409433651
-0.163962130204
-0.163488965017
-0.162989504114
-0.162463313728
-0.161909925834
-0.161328855637
-0.160719559324
-0.160081497761
-0.159414062336
-0.158716613281
-0.157988434533
-0.157228751995
-0.156436754917
-0.155611528287
-0.154752085416
-0.153857289019
-0.152925940741
-0.151956709476
-0.150948117448
-0.149898567856
-0.148806073041
-0.147668797597
-0.146484328882
-0.145250178431
-0.143963648868
-0.142621281528
-0.141219929374
-0.139755413988
-0.138223451451
-0.136619399386
-0.134937450356
-0.133172432263
-0.131317200567
-0.129365338775
-0.127308811717
-0.125139778394
-0.122849286838
-0.120428289598
-0.117867119924
-0.115155919221
-0.112284602801
-0.109243177035
-0.10602185196
-0.102611419956
-0.0990034003844
-0.0951905777767
-0.0911673794791
-0.086929512633
-0.0824748658085
-0.0778040942187
-0.0729216466473
-0.0678343253757
-0.0625510336215
-0.0570876039205
-0.0514601294033
-0.0456900885083
-0.0398037934978
-0.0338289858782
-0.0277971235328
-0.0217424172982
-0.0157016234072
-0.00971255023055
-0.00381480198208
0.00195211503615
0.00754860536934
0.0129362132693
0.0180779477832
0.0229391231247
0.0274877489495
0.0316951975538
0.0355363292007
0.0389901690839
0.0420396205568
0.0446721522144
0.0468790804682
0.0486561818972
0.0500028342542
0.0509221052054
0.0514206498618
0.0515068088663
0.0511938686064
0.0504920027472
0.0494218690564
0.0479892557979
0.0462269592072
0.0441236487481
0.041739436251
0.0390169185693
0.0360847727396
0.0327694505464
0.0293755524889
0.0254378381373
0.0217143836107
0.0169984134913
0.0132257650427
0.00733203942383
0.00531765964046
-0.168284197912
-0.16837221015
-0.168438011588
-0.168500549648
-0.168547042953
-0.168582994396
-0.168606938737
-0.16862064455
-0.168623750834
-0.168616040898
-0.168596618669
-0.16856449172
-0.168518546713
-0.16845769492
-0.168380903339
-0.168287215403
-0.168175758471
-0.168045735447
-0.167896421828
-0.167727153811
-0.167537323666
-0.167326369019
-0.167093769032
-0.166839034867
-0.166561706976
-0.166261346318
-0.165937532889
-0.165589857077
-0.165217918908
-0.164821320299
-0.164399660691
-0.163952540869
-0.163479547446
-0.162980245174
-0.162454202034
-0.161900951219
-0.161320009164
-0.160710828725
-0.16007287393
-0.159405537075
-0.15870818114
-0.157980088405
-0.157220482469
-0.156428557437
-0.155603402431
-0.15474403587
-0.153849316311
-0.152918048806
-0.151948908798
-0.150940432095
-0.149891036191
-0.148798714454
-0.147661676698
-0.146477504546
-0.145243732179
-0.143957707333
-0.142615942011
-0.141215376233
-0.139751828789
-0.138221050737
-0.136618471038
-0.134938241775
-0.13317533483
-0.131322554283
-0.129373583217
-0.127320386441
-0.125155177751
-0.122869004477
-0.120452839953
-0.117897023236
-0.115191683732
-0.112326702509
-0.109292049754
-0.106077878015
-0.102674921359
-0.0990746112805
-0.0952696275558
-0.0912542506339
-0.0870241900681
-0.0825773683826
-0.077913692511
-0.0730379508866
-0.0679567150126
-0.0626789375357
-0.0572203096286
-0.0515977364647
-0.0458326797218
-0.0399498302038
-0.0339780239731
-0.0279485001336
-0.0218955559768
-0.0158559980847
-0.00986782870905
-0.00397064016713
0.00179593283689
0.00739224812989
0.0127797819146
0.017921481916
0.0227826204428
0.0273311587578
0.0315384543457
0.0353793447635
0.0388328677755
0.0418819268695
0.0445140317502
0.0467205145427
0.0484972215713
0.0498435545311
0.0507626723507
0.0512612552999
0.0513477464936
0.0510354593057
0.0503346622074
0.0492660573564
0.0478354832955
0.0460758475067
0.0439757518886
0.0415955919915
0.0388776504851
0.0359512363716
0.0326421046276
0.0292559245725
0.0253267621337
0.0216129923166
0.0169115327613
0.0131478692588
0.0073032400087
0.0053155691158
-0.16826514566
-0.168359520618
-0.168426748885
-0.168488562401
-0.16853372353
-0.168568374666
-0.168591470353
-0.168604759038
-0.168607840714
-0.168600363904
-0.168581341408
-0.168549697492
-0.168504271208
-0.168443941825
-0.16836766066
-0.168274462647
-0.168163472012
-0.16803389067
-0.167884994516
-0.16771612057
-0.167526662225
-0.167316058204
-0.167083788824
-0.166829366262
-0.166552332027
-0.166252247968
-0.165928695061
-0.165581264438
-0.165209557139
-0.164813175763
-0.164391719986
-0.163944792543
-0.163471980508
-0.162972847047
-0.162446962381
-0.161893861558
-0.161313062641
-0.16070401432
-0.160066184551
-0.159398967177
-0.158701728838
-0.157973749839
-0.157214250668
-0.156422431636
-0.155597387513
-0.154738143347
-0.153843552265
-0.152912423029
-0.151943439169
-0.150935153895
-0.149886001727
-0.148793951285
-0.147657267634
-0.146473524455
-0.145240281535
-0.14395494074
-0.142613975448
-0.141214429577
-0.1397521153
-0.138222820157
-0.136622058599
-0.134943924175
-0.133183559993
-0.131333702923
-0.129388141168
-0.127338837761
-0.12517807111
-0.122896857057
-0.120486196195
-0.117936430774
-0.115237668866
-0.112379739564
-0.109352567999
-0.106146263254
-0.10275144237
-0.0991594375658
-0.095362809962
-0.0913557249295
-0.087133737203
-0.0826946388122
-0.0780382558156
-0.0731692363358
-0.0680940675497
-0.062822955599
-0.0573694675169
-0.0517514585943
-0.0459903643547
-0.0401106941263
-0.0341413477274
-0.028113729464
-0.0220622158341
-0.0160236113866
-0.0100360893715
-0.00413927501086
0.00162709448862
0.0072233061925
0.0126107657811
0.0177523560175
0.0226133064284
0.0271615368456
0.031368389719
0.0352086899031
0.0386614980504
0.0417097268246
0.044340942345
0.046546503195
0.0483223441072
0.0496679011757
0.0505864463838
0.05108469322
0.0511712124538
0.0508593476358
0.0501594924094
0.0490923876437
0.0476639631576
0.0459072145232
0.0438107425854
0.0414351630051
0.0387225784525
0.0358027573245
0.0325010876292
0.0291238029141
0.0252052274053
0.0215023855755
0.0168190314817
0.0130642170479
0.00727567306563
0.00530594720554
-0.168245877138
-0.168347162612
-0.168416279718
-0.168477659871
-0.168521689952
-0.168555155874
-0.168577481364
-0.168590408074
-0.16859351492
-0.168586318784
-0.168567744151
-0.168536630554
-0.168491768415
-0.168432003516
-0.168356270703
-0.168263595951
-0.168153100339
-0.168023985032
-0.167875526719
-0.167707063729
-0.167517991068