/*--------------------------------*- C++ -*----------------------------------*\
| =========                 |                                                 |
| \\      /  F ield         | OpenFOAM: The Open Source CFD Toolbox           |
|  \\    /   O peration     | Version:  v1906                                 |
|   \\  /    A nd           | Web:      www.OpenFOAM.com                      |
|    \\/     M anipulation  |                                                 |
\*---------------------------------------------------------------------------*/
FoamFile
{
    version     2.0;
    format      ascii;
    class       surfaceScalarField;
    location    "0";
    object      phi;
}
// * * * * * * * * * * * * * * * * * * * * * * * * * * * * * * * * * * * * * //

dimensions      [0 3 -1 0 0 0 0];
oriented        oriented;


internalField   nonuniform List<scalar> 
36576
(
2.99611413114e-07
-2.99611694184e-07
8.93521079243e-08
2.10258861257e-07
-6.21356099945e-07
7.1070745017e-07
-1.70964094326e-06
1.08828447305e-06
-3.00594592272e-06
1.29630408044e-06
-4.4054503522e-06
1.39950427349e-06
-5.84094787591e-06
1.43549655958e-06
-7.2832327009e-06
1.44228496046e-06
-8.72100587947e-06
1.43777216927e-06
-1.01532727907e-05
1.43226736991e-06
-1.15818225342e-05
1.42854872393e-06
-1.30086877509e-05
1.42686603779e-06
-1.44349034957e-05
1.42621473748e-06
-1.58605317787e-05
1.42562948966e-06
-1.72849718559e-05
1.42443909023e-06
-1.87072927718e-05
1.422322518e-06
-2.01265130906e-05
1.41921935059e-06
-2.15417266566e-05
1.41521556372e-06
-2.29522040249e-05
1.41047641372e-06
-2.43573869862e-05
1.40518535148e-06
-2.57569183763e-05
1.39953044728e-06
-2.71505967265e-05
1.39368113124e-06
-2.85383959479e-05
1.38779829555e-06
-2.99204134662e-05
1.38202069291e-06
-3.12968965827e-05
1.37648221982e-06
-3.26681900343e-05
1.37129702599e-06
-3.40347719743e-05
1.36658108965e-06
-3.53972004601e-05
1.36243246595e-06
-3.67561563299e-05
1.3589550844e-06
-3.811238863e-05
1.35623668867e-06
-3.94667586693e-05
1.35436933668e-06
-4.082019991e-05
1.35344603433e-06
-4.21737501429e-05
1.35354962902e-06
-4.35284882825e-05
1.35474332746e-06
-4.4885665718e-05
1.35717694415e-06
-4.62465912207e-05
1.36093106659e-06
-4.7612712225e-05
1.36612063771e-06
-4.89854861291e-05
1.37277981829e-06
-5.03666128379e-05
1.38112647802e-06
-5.17578606497e-05
1.39125404347e-06
-5.31611743652e-05
1.40331363029e-06
-5.45785365298e-05
1.41736867405e-06
-5.60121281206e-05
1.43359165987e-06
-5.74643814272e-05
1.45226004807e-06
-5.893794302e-05
1.47356182377e-06
-6.0435609061e-05
1.49767296358e-06
-6.1960287892e-05
1.52467922971e-06
-6.35151794705e-05
1.55489862655e-06
-6.51038462884e-05
1.58866738832e-06
-6.673004907e-05
1.6262098965e-06
-6.83978660218e-05
1.6678176957e-06
-7.01110958071e-05
1.7132369069e-06
-7.18744991367e-05
1.7634042463e-06
-7.36924421192e-05
1.81795005015e-06
-7.55697106602e-05
1.87726962749e-06
-7.75113805715e-05
1.94167686539e-06
-7.95216412583e-05
2.01026193541e-06
-8.160575949e-05
2.08412501238e-06
-8.37676553853e-05
2.16189729393e-06
-8.60111549734e-05
2.24350613719e-06
-8.8339822845e-05
2.32866940545e-06
-9.07549219357e-05
2.41510535417e-06
-9.32588723631e-05
2.50395207905e-06
-9.58500465948e-05
2.59118015854e-06
-9.85271863571e-05
2.67714151026e-06
-0.000101285259591
2.75807877486e-06
-0.000104117849464
2.83259169181e-06
-0.000107014749022
2.89690466704e-06
-0.000109963102063
2.94835490537e-06
-0.000112946202475
2.98310504314e-06
-0.000115943616673
2.99741608259e-06
-0.000118930675557
2.98706299967e-06
-0.00012187856092
2.9478872467e-06
-0.000124754075628
2.87551827459e-06
-0.000127519819663
2.76574590415e-06
-0.000130133822315
2.61400564787e-06
-0.000132549767913
2.41594744786e-06
-0.000134718449207
2.16868370562e-06
-0.000136591473512
1.8730261338e-06
-0.000138119051189
1.52757949457e-06
-0.000139245408969
1.12635959414e-06
-0.000139910728755
6.65321007353e-07
-0.000140068020006
1.57293060548e-07
-0.000139664681781
-4.03337584145e-07
-0.000138652477995
-1.01220194358e-06
-0.000136989397045
-1.66308087157e-06
-0.000134637754666
-2.35164047614e-06
-0.000131566528568
-3.07122655737e-06
-0.000127753000657
-3.81352591186e-06
-0.000123181209112
-4.57179251171e-06
-0.000117844968703
-5.3362382706e-06
-0.000111747012055
-6.09795808494e-06
-0.000104898645765
-6.84836397159e-06
-9.73215113692e-05
-7.57713626833e-06
-8.90447198826e-05
-8.27678895031e-06
-8.0107272352e-05
-8.93744980606e-06
-7.05548279877e-05
-9.55244157731e-06
-6.0440665128e-05
-1.01141655069e-05
-4.98238213358e-05
-1.06168407237e-05
-3.87681995222e-05
-1.10556248007e-05
-2.73411022952e-05
-1.14270938511e-05
-1.56123989631e-05
-1.17287066293e-05
-3.65307485002e-06
-1.19593204146e-05
8.46552406235e-06
-1.21186024939e-05
2.06741020305e-05
-1.22085739422e-05
3.2905455263e-05
-1.22313570742e-05
4.50964870558e-05
-1.21910274461e-05
5.71882180288e-05
-1.20917350518e-05
6.91269465904e-05
-1.19387239149e-05
8.08662076646e-05
-1.17392653728e-05
9.23630578761e-05
-1.14968453077e-05
0.00010358807196
-1.12250185964e-05
0.000114506917533
-1.09188404807e-05
0.000125114481873
-1.06075690754e-05
0.000135375936845
-1.02614497996e-05
0.000145326345945
-9.95041411245e-06
0.000154905576057
-9.57922504369e-06
0.000164227859427
-9.32228880721e-06
0.000173145243222
-8.91737906644e-06
0.000181949399789
-8.80416258882e-06
0.00019024806914
-8.29866501822e-06
0.000198759860497
-8.51179782684e-06
0.000206453005005
-7.69314024928e-06
0.000215109927714
-8.65692926036e-06
0.000222045339056
-6.93540690857e-06
0.000231583524289
-9.5381912228e-06
0.000237398728021
-5.81520036622e-06
-2.01474918644e-05
6.22734426478e-07
-9.22346516624e-07
-1.11452927649e-07
9.44445667171e-07
-2.30852979985e-06
2.90778338169e-06
-5.59497368151e-06
4.37472790664e-06
-9.51924518114e-06
5.22057447794e-06
-1.37635398629e-05
5.64379877355e-06
-1.81323256078e-05
5.80428112636e-06
-2.25301430054e-05
5.8401025315e-06
-2.69194772116e-05
5.82710514885e-06
-3.12926519433e-05
5.80544267037e-06
-3.56527416764e-05
5.78863722375e-06
-4.00043238541e-05
5.77844922638e-06
-4.43499677929e-05
5.7718574628e-06
-4.86897325017e-05
5.76539567882e-06
-5.3021930594e-05
5.75663599802e-06
-5.73439807986e-05
5.74437468333e-06
-6.16531529538e-05
5.7283903479e-06
-6.5946952739e-05
5.70901778971e-06
-7.02233751119e-05
5.686897649e-06
-7.44809331383e-05
5.6627462946e-06
-7.87187016044e-05
5.63729779413e-06
-8.29362347469e-05
5.61121766467e-06
-8.71335723687e-05
5.58513482281e-06
-9.13111430679e-05
5.55959526086e-06
-9.54697831209e-05
5.53512121837e-06
-9.96106450597e-05
5.51216331882e-06
-0.000103735236537
5.49117157349e-06
-0.000107845331981
5.47253275666e-06
-0.000111943027134
5.45664932747e-06
-0.000116030651869
5.44386676512e-06
-0.000120110828847
5.43454551054e-06
-0.000124186421798
5.4290448179e-06
-0.0001282605556
5.42768274985e-06
-0.000132336540493
5.43073452981e-06
-0.000136418106034
5.438741945e-06
-0.000140509222094
5.4520538907e-06
-0.000144614176711
5.47107486876e-06
-0.000148737405249
5.4960155435e-06
-0.000152883915985
5.527636996e-06
-0.000157059015811
5.56636143896e-06
-0.000161268431725
5.61272950381e-06
-0.00016551809039
5.66703524258e-06
-0.000169814445716
5.72994713544e-06
-0.000174164666117
5.80248863017e-06
-0.000178576521941
5.88541799374e-06
-0.000183058215252
5.97937467151e-06
-0.000187618297028
6.08476155545e-06
-0.000192266132376
6.20274251878e-06
-0.000197012020893
6.33455666336e-06
-0.000201866942563
6.48114018837e-06
-0.000206842456698
6.64333279724e-06
-0.000211949827605
6.82061643928e-06
-0.000217202279973
7.01585778917e-06
-0.000222612411498
7.22809013073e-06
-0.000228193689101
7.45854860883e-06
-0.000233959940797
7.70793697632e-06
-0.000239923189007
7.97351171672e-06
-0.000246097172135
8.25811634094e-06
-0.000252492498646
8.55722555551e-06
-0.000259118950613
8.86996602109e-06
-0.000265984622225
9.19434292804e-06
-0.000273092384282
9.52287497976e-06
-0.000280445515934
9.85708578017e-06
-0.00028803819261
1.01838639926e-05
-0.000295862602098
1.05015531599e-05
-0.000303901870197
1.0797353564e-05
-0.000312133123891
1.10638476293e-05
-0.00032052346781
1.12872547493e-05
-0.000329031249919
1.14561393086e-05
-0.000337604006155
1.15558668646e-05
-0.000346178099654
1.15715118956e-05
-0.000354677854375
1.14868226805e-05
-0.00036301555924
1.12855944226e-05
-0.000371091231767
1.0951195097e-05
-0.000378792991091
1.04675075186e-05
-0.000385996543615
9.81756177721e-06
-0.000392566168589
8.98557468718e-06
-0.000398359332305
7.96185032109e-06
-0.000403234812011
6.74850807678e-06
-0.000407043498269
5.33626793624e-06
-0.000409623211942
3.70607548292e-06
-0.000410821241588
1.86335211513e-06
-0.000410497660079
-1.66286233914e-07
-0.000408499628684
-2.40136821437e-06
-0.000404697282027
-4.81454634649e-06
-0.000398975464535
-7.38489827385e-06
-0.00039123316611
-1.00939365727e-05
-0.000381388603313
-1.29157899113e-05
-0.000369383648969
-1.58184778096e-05
-0.000355180786666
-1.87746559795e-05
-0.000338769468823
-2.17475534982e-05
-0.000320164773
-2.47026556379e-05
-0.00029940613966
-2.76069944752e-05
-0.000276561216624
-3.04220615556e-05
-0.000251719455334
-3.311854714e-05
-0.000224996247802
-3.56606600738e-05
-0.000196526592214
-3.8022093761e-05
-0.000166465018082
-4.01757428203e-05
-0.000134982658406
-4.2099196655e-05
-0.000102263020297
-4.37752664987e-05
-6.84988770922e-05
-4.51912329414e-05
-3.38890173458e-05
-4.63385703363e-05
1.3637610921e-06
-4.72120943501e-05
3.70561455803e-05
-4.78109912847e-05
7.29929290474e-05
-4.81453525144e-05
0.000108983294441
-4.82217270831e-05
0.000144848178426
-4.80559061534e-05
0.000180420274351
-4.7663835878e-05
0.000215548049671
-4.70664936009e-05
0.000250097462229
-4.62886830984e-05
0.000283950495793
-4.53498729344e-05
0.000317015183748
-4.42897119792e-05
0.000349207254897
-4.31109054763e-05
0.000380487228215
-4.18875480947e-05
0.000410795184907
-4.05694002572e-05
0.000440163162498
-3.93183977525e-05
0.00046852705018
-3.79431066405e-05
0.000496034901812
-3.68301470239e-05
0.000522546883627
-3.54293552325e-05
0.000548437416178
-3.4694702446e-05
0.000573317134504
-3.31783781705e-05
0.000598060899381
-3.32555705246e-05
0.000621609231683
-3.12414674366e-05
0.000646006025872
-3.30537313608e-05
0.000668525490061
-2.94548657839e-05
0.000693592093422
-3.46048016979e-05
0.000716712995109
-2.89360982221e-05
-6.20634352297e-05
7.29279599199e-07
-1.65162657746e-06
-6.81160908063e-07
2.3548855852e-06
-4.47537954254e-06
6.70200100217e-06
-1.00511770874e-05
9.95052497514e-06
-1.67043616819e-05
1.1873757895e-05
-2.39082645871e-05
1.28477014878e-05
-3.1339131304e-05
1.32351465882e-05
-3.88298431093e-05
1.33308145221e-05
-4.6312083201e-05
1.33093439392e-05
-5.3767521613e-05
1.32608816875e-05
-6.11980784491e-05
1.32191927561e-05
-6.86094666113e-05
1.31898384623e-05
-7.60051756467e-05
1.31675652193e-05
-8.33850924738e-05
1.31453140765e-05
-9.07465057636e-05
1.31180480431e-05
-9.80853520809e-05
1.30832230787e-05
-0.000105397346305
1.3040383358e-05
-0.000112678608272
1.29902823417e-05
-0.000119926042924
1.29343311107e-05
-0.000127137416703
1.28741231598e-05
-0.000134311399375
1.28112792985e-05
-0.000141447463456
1.27472853321e-05
-0.00014854585938
1.26835296075e-05
-0.000155607494007
1.26212339775e-05
-0.000162633921612
1.25615477292e-05
-0.000169627235739
1.25054820467e-05
-0.000176590087648
1.24540224554e-05
-0.000183525587897
1.24080381255e-05
-0.00019043734686
1.23684073534e-05
-0.000197329381171
1.23359067168e-05
-0.000204206162176
1.23113256925e-05
-0.000211072575516
1.22954643142e-05
-0.00021793390451
1.22890110526e-05
-0.000224795778171
1.22926148488e-05
-0.000231664453108
1.23074163396e-05
-0.000238546625937
1.23342338543e-05
-0.000245449456516
1.23739050694e-05
-0.000252380422489
1.24269890927e-05
-0.000259347844733
1.24950590384e-05
-0.000266360596136
1.25791208176e-05
-0.00027342817137
1.26803047253e-05
-0.00028056045003
1.27993222253e-05
-0.000287768131157
1.29376284474e-05
-0.0002950630609
1.30974269834e-05
-0.000302458041796
1.3280399281e-05
-0.00030996657212
1.34879138282e-05
-0.000317602721695
1.37209117352e-05
-0.000325381842123
1.39818719297e-05
-0.000333320701826
1.42734171874e-05
-0.000341437203628
1.45976510489e-05
-0.000349749940498
1.49560707058e-05
-0.00035827731743
1.53480024281e-05
-0.000367040299435
1.57788410504e-05
-0.000376059102942
1.62469026169e-05
-0.000385355017279
1.67544644126e-05
-0.000394949505627
1.73024341505e-05
-0.000404861468469
1.78854762262e-05
-0.000415111486057
1.85081425269e-05
-0.00042571540018
1.91611415319e-05
-0.000436687125225
1.98416993622e-05
-0.000448037023628
2.05442433511e-05
-0.000459767646386
2.1253505666e-05
-0.000471880015342
2.19694569005e-05
-0.000484361802621
2.26656587684e-05
-0.00049719518563
2.33349384507e-05
-0.000510348522836
2.39506977735e-05
-0.000523778890836
2.44942179973e-05
-0.000537427449897
2.49358202617e-05
-0.000551220237277
2.52489291107e-05
-0.000565065770746
2.5401406179e-05
-0.00057885410426
2.53598478551e-05
-0.000592455879528
2.50886031398e-05
-0.000605722274555
2.45519918934e-05
-0.000618485000925
2.3713925964e-05
-0.000630556974254
2.25394832741e-05
-0.000641732082771
2.09926740706e-05
-0.000651787199419
1.90406937385e-05
-0.000660489957681
1.66646116242e-05
-0.000667608921184
1.38674739598e-05
-0.000672891872399
1.06192214463e-05
-0.000676084803456
6.89900889469e-06
-0.000676959685728
2.73823592865e-06
-0.000675282055703
-1.8439138879e-06
-0.000670804542355
-6.87888074376e-06
-0.00066333201233
-1.22870739556e-05
-0.000652685633364
-1.80312771236e-05
-0.000638712369604
-2.40671978327e-05
-0.000621290559547
-3.03376005252e-05
-0.000600336971833
-3.67720628924e-05
-0.000575802571768
-4.33090572341e-05
-0.000547680938145
-4.98691843063e-05
-0.000516006842823
-5.6376752736e-05
-0.00048085364883
-6.27601854181e-05
-0.000442339032663
-6.89366800434e-05
-0.000400615242633
-7.48423338394e-05
-0.00035587414856
-8.04017569723e-05
-0.000308338826243
-8.55574124271e-05
-0.000258261504037
-9.0253068317e-05
-0.000205920707959
-9.44399887245e-05
-0.000151613062331
-9.8082915846e-05
-9.5646999103e-05
-0.000101157291774
-3.83461656949e-05
-0.000103639407856
1.99637979735e-05
-0.000105522053218
7.89629915225e-05
-0.000106810189307
0.000138336175814
-0.000107518531599
0.000197779022098
-0.000107664578173
0.000257005401292
-0.000107282279745
0.000315748001679
-0.000106406441376
0.000373765067364
-0.000105083553318
0.000430840816193
-0.000103364437324
0.00048678859963
-0.000101297650097
0.000541455615895
-9.89567339212e-05
0.000594714597738
-9.63698808287e-05
0.000646485976361
-9.3658932691e-05
0.000696697247318
-9.07806646549e-05
0.000745356283673
-8.79774404605e-05
0.000792426154881
-8.50129714708e-05
0.000838031866383
-8.24358654613e-05
0.000882124500762
-7.95219837161e-05
0.00092501664354
-7.75868529368e-05
0.000966539788316
-7.47015175535e-05
0.00100735914283
-7.40749332721e-05
0.00104695495402
-7.08372732779e-05
0.00108670101235
-7.27997980146e-05
0.00112530963657
-6.80634844604e-05
0.00116512434265
-7.44195151669e-05
0.001206270215
-7.00819667282e-05
-0.000118614992628
6.52302261477e-07
-2.30392934797e-06
-1.60831358204e-06
4.61550080908e-06
-7.1277344402e-06
1.22214207964e-05
-1.51042471396e-05
1.79270371745e-05
-2.45987474063e-05
2.13682569348e-05
-3.48854948817e-05
2.3134448759e-05
-4.55119785849e-05
2.38616289878e-05
-5.62364019428e-05
2.40552380639e-05
-6.69553071782e-05
2.40282478289e-05
-7.76363263939e-05
2.3941901521e-05
-8.82777783801e-05
2.38606433994e-05
-9.88851283822e-05
2.37971895659e-05
-0.00010946210507
2.37445405954e-05
-0.000120008220198
2.36914308178e-05
-0.00013051978488
2.36296114528e-05
-0.000140991424973
2.35548653078e-05
-0.000151417516489
2.34664736371e-05
-0.000161793019387
2.33657878965e-05
-0.000172113966834
2.32552773489e-05
-0.000182377585501
2.31377449998e-05
-0.000192582333162
2.30160257766e-05
-0.00020272778209
2.28927379448e-05
-0.000212814562357
2.27703087245e-05
-0.000222844218309
2.26508941313e-05
-0.000232819170015
2.25364983351e-05
-0.000242742591004
2.24289077621e-05
-0.000252618404097
2.23298345186e-05
-0.000262451175959
2.22408152451e-05
-0.000272246140595
2.21633710564e-05
-0.000282009102816
2.20988747291e-05
-0.000291746473778
2.20486958391e-05
-0.000301465244249
2.20142411052e-05
-0.000311172929497
2.1996695622e-05
-0.000320877542236
2.19972344198e-05
-0.000330587917057
2.20177906379e-05
-0.000340313518139
2.20598422544e-05
-0.00035006440775
2.21247943255e-05
-0.000359851125812
2.22137149236e-05
-0.000369685305899
2.2329238952e-05
-0.000379579373405
2.24731964979e-05
-0.000389546561019
2.26474923577e-05
-0.000399600658765
2.28534284979e-05
-0.000409756538214
2.30935081164e-05
-0.000420030618499
2.3371516085e-05
-0.000430440593457
2.3690374669e-05
-0.000441005090495
2.4052419906e-05
-0.000451743490695
2.44593125809e-05
-0.000462676861862
2.49152522839e-05
-0.000473828099978
2.54246561675e-05
-0.000485221604249
2.59911645803e-05
-0.000496882509644
2.66169771853e-05
-0.000508835778117
2.7301280154e-05
-0.000521109374979
2.80524392145e-05
-0.000533730278007
2.88678148143e-05
-0.000546726558823
2.9750746744e-05
-0.000560126123556
3.0702007892e-05
-0.000573953377071
3.17127314584e-05
-0.000588234103599
3.2788877827e-05
-0.000602987552848
3.39145926853e-05
-0.000618229676639
3.50838316144e-05
-0.000633970796416
3.62853652007e-05
-0.000650210553915
3.74932712484e-05
-0.000666944857798
3.87037630031e-05
-0.000684151812812
3.98726214236e-05
-0.000701800336327
4.0983464306e-05
-0.000719840569799
4.19909383836e-05
-0.000738206043016
4.28596936427e-05
-0.000756808440386
4.35382242085e-05
-0.000775538061115
4.3978552325e-05
-0.000794261141442
4.41244924668e-05
-0.000812818520047
4.39172289716e-05
-0.000831024719717
4.32948081059e-05
-0.000848668007769
4.2195282459e-05
-0.000865510776999
4.05566997865e-05
-0.000881290742639
3.83194514155e-05
-0.000895721334382
3.54232696764e-05
-0.000908494946917
3.18143087577e-05
-0.00091929393503
2.74636028557e-05
-0.000927799701072
2.23732424695e-05
-0.000933646168992
1.64656917238e-05
-0.000936532427665
9.78527001329e-06
-0.000936149272853
2.35508271961e-06
-0.00093215567143
-5.83751283718e-06
-0.000924244747058
-1.47898042439e-05
-0.000912160147031
-2.43716714555e-05
-0.000895671847679
-3.45195763133e-05
-0.000874586959962
-4.51520829293e-05
-0.000848755527418
-5.61690335869e-05
-0.000818080322583
-6.74472649654e-05
-0.000782511046259
-7.88783347151e-05
-0.000742054200083
-9.0326027527e-05
-0.000696771650944
-0.000101659303626
-0.000646776064626
-0.000112755768534
-0.000592239128214
-0.000123473618758
-0.000533377445584
-0.000133704012977
-0.000470459079816
-0.000143320125555
-0.00040379287493
-0.000152223613492
-0.000333724402552
-0.000160321543985
-0.000260633745787
-0.000167530641303
-0.000184920781012
-0.000173795884349
-0.000107007811047
-0.000179070257159
-2.73298996672e-05
-0.000183317323368
5.36804974756e-05
-0.000186532445372
0.000135590514705
-0.000188720211042
0.00021797780075
-0.000189905812245
0.000300435020701
-0.000190121802974
0.000382578938986
-0.000189426192236
0.000464051528582
-0.00018787903614
0.000544528976259
-0.000185560994838
0.000623721098408
-0.000182556564941
0.000701378210983
-0.000178954756211
0.000777291791372
-0.000174870320073
0.000851293953598
-0.000170372036389
0.000923268288124
-0.000165633273293
0.000993128014371
-0.000160640384183
0.00106085959495
-0.000155709027518
0.00112644564452
-0.000150599014533
0.00118999385076
-0.000145984078798
0.0012515277113
-0.000141055838259
0.00131131516856
-0.000137374318115
0.0013693659007
-0.000132752244228
0.00142618605677
-0.000130895097783
0.00148169139112
-0.000126342602188
0.00153673483995
-0.000127843255375
0.00159117932695
-0.000122507965829
0.00164591793934
-0.000129158135051
0.00170355523684
-0.000127719260441
-0.000188178484845
4.08820272413e-07
-2.71275016378e-06
-2.88425245453e-06
7.90857289111e-06
-1.02749616249e-05
1.96121288668e-05
-2.07794692422e-05
2.84315442678e-05
-3.32397248953e-05
3.38285113271e-05
-4.67404756284e-05
3.6635199268e-05
-6.07012919301e-05
3.7822443955e-05
-7.48035935856e-05
3.81575398886e-05
-8.89051901954e-05
3.81298430673e-05
-0.00010295661834
3.79933302746e-05
-0.000116950300891
3.78543245874e-05
-0.000130890091649
3.77369814243e-05
-0.000144779267081
3.76337147008e-05
-0.000158616745633
3.75289109872e-05
-0.000172397908253
3.74107727912e-05
-0.00018611625641
3.72732156122e-05
-0.000199765069313
3.71152852983e-05
-0.000213338403781
3.69391250366e-05
-0.000226831671788
3.67485441471e-05
-0.000240241797498
3.65478739003e-05
-0.000253567247738
3.63414748367e-05
-0.00026680790009
3.61333940042e-05
-0.000279964954301
3.59273617904e-05
-0.000293040768286
3.57267123432e-05
-0.000306038789878
3.55345188338e-05
-0.000318963421877
3.53535445151e-05
-0.000331819994712
3.51864063332e-05
-0.000344614655468
3.50354812888e-05
-0.00035735437336
3.49030880258e-05
-0.000370046841561
3.47913487532e-05
-0.00038270049932
3.47023527952e-05
-0.00039532452018
3.46382683181e-05
-0.00040792871615
3.46008909282e-05
-0.000420523534554
3.45920596885e-05
-0.000433120425055
3.46146806293e-05
-0.000445731643717
3.46710682667e-05
-0.000458370164719
3.47633149857e-05
-0.000471049581316
3.48931393197e-05
-0.00048378481139
3.50644688651e-05
-0.000496591787292
3.52801806016e-05
-0.000509487414165
3.55431192597e-05
-0.000522489301916
3.58553247979e-05
-0.000535616367624
3.6220574052e-05
-0.000548889440899
3.66445981947e-05
-0.00056233090662
3.71318408239e-05
-0.000575964281852
3.76858041893e-05
-0.000589813962789
3.8308994163e-05
-0.000603906362976
3.90076616653e-05
-0.000618270058934
3.97883529841e-05
-0.000632935410454
4.06565253599e-05
-0.000647933470295
4.16150380996e-05
-0.000663295013524
4.26628326304e-05
-0.000679054114325
4.38115413018e-05
-0.000695243464733
4.50571743799e-05
-0.000711896690592
4.64039740987e-05
-0.00072904674503
4.78520713215e-05
-0.000746721921405
4.93879095289e-05
-0.000764951351822
5.10183169934e-05
-0.000783755606359
5.2718849103e-05
-0.000803150330483
5.44785641752e-05
-0.000823143241276
5.6278278043e-05
-0.000843728208104
5.8078246134e-05
-0.000864892955735
5.98685128308e-05
-0.000886602724484
6.15823977904e-05
-0.000908809734515
6.3190476657e-05
-0.000931442325707
6.46235366922e-05
-0.000954406893572
6.58242639213e-05
-0.000977582104104
6.67134413018e-05
-0.00100081915822
6.72156089166e-05
-0.00102393892722
6.72442674224e-05
-0.00104673041453
6.67087187939e-05
-0.00106895000219
6.55144010591e-05
-0.00109032179326
6.35670760474e-05
-0.00111053853898
6.07734501105e-05
-0.00112926359444
5.70445093968e-05
-0.00114613226279
5.22919419169e-05
-0.00116075656038
4.64386088694e-05
-0.00117273942182
3.94464674372e-05
-0.00118166842076
3.13022439253e-05
-0.00118708743175
2.18847051153e-05
-0.00118866428223
1.13621229976e-05
-0.00118600347152
-3.0572632491e-07
-0.00117865889872
-1.3182083078e-05
-0.00116629722966
-2.71514723621e-05
-0.00114860585494
-4.20630435518e-05
-0.00112531647353
-5.7808957477e-05
-0.00109620924937
-7.42593043617e-05
-0.00106111791767
-9.12603657091e-05
-0.001019942684
-0.000108622495749
-0.000972642322682
-0.000126178697085
-0.000919244912641
-0.000143723434478
-0.000859846636117
-0.000161057581789
-0.000794604173003
-0.000177998228303
-0.000723746880228
-0.000194330913716
-0.000647556475045
-0.000209894414519
-0.000566376026999
-0.000224500576296
-0.000480597375486
-0.000238002261031
-0.000390653681714
-0.000250265240927
-0.00029701813739
-0.000261166181288
-0.000200192568915
-0.000270621456438
-0.00010069765843
-0.000278565162914
9.34368022762e-07
-0.000284949353844
0.000104168229629
-0.000289766301847
0.00020847229826
-0.00029302428408
0.000313328623395
-0.000294762131849
0.000418238103988
-0.000295031288331
0.000522731101061
-0.000293919183394
0.000626368828455
-0.00029151676863
0.000728754286089
-0.000287946446208
0.000829530764768
-0.000283333049029
0.000928391849615
-0.00027781583451
0.00102507871094
-0.000271557187118
0.00111938604835
-0.000264679367066
0.00121116366542
-0.000257410896411
0.00130031008579
-0.000249786797784
0.00138679183212
-0.000242190780327
0.00147060601847
-0.000234413194357
0.00155184489974
-0.000227222967194
0.00163059207091
-0.000219803003447
0.00170707790919
-0.000213860164359
0.00178146325767
-0.000207137587276
0.00185411990871
-0.000203551757331
0.00192533504053
-0.000197557728589
0.00199552293336
-0.000198031156798
0.00206550595619
-0.000192490983062
0.00213507539212
-0.000198727578449
0.00220810798271
-0.000200751847351
-0.000269711867574
-3.10623191222e-09
-2.70964450019e-06
-4.50188463026e-06
1.24073506223e-05
-1.39262811322e-05
2.90365242428e-05
-2.71017405996e-05
4.16070031867e-05
-4.26642405768e-05
4.93910100206e-05
-5.95181998114e-05
5.34891582541e-05
-7.6957175719e-05
5.52614185096e-05
-9.45846031212e-05
5.57849674368e-05
-0.000112216695781
5.5761934344e-05
-0.000129784210448
5.55608455293e-05
-0.000147271563383
5.53416761535e-05
-0.000164679687109
5.51451062297e-05
-0.000182010726925
5.49647531911e-05
-0.000199262791988
5.4780977649e-05
-0.000216430392527
5.4578372055e-05
-0.000233506114746
5.43489399592e-05
-0.000250482414531
5.4091583854e-05
-0.000267352737294
5.38094504518e-05
-0.00028411215984
5.35079654993e-05
-0.000300757574085
5.31932913162e-05
-0.000317287706787
5.28716063767e-05
-0.000333702971878
5.25486627792e-05
-0.000350005350535
5.22297393234e-05
-0.000366198207696
5.19195737046e-05
-0.000382286194866
5.16225049338e-05
-0.00039827510332
5.13424576927e-05
-0.000414171814119
5.10831161358e-05
-0.000429984182333
5.08478547565e-05
-0.000445721024672
5.06399294669e-05
-0.000461392019756
5.04623496223e-05
-0.00047700771773
5.03180499914e-05
-0.000492579544543
5.0210101439e-05
-0.000508119661788
5.01410075332e-05
-0.000523640984797
5.01133895119e-05
-0.000539157597189
5.01312925341e-05
-0.00055468455055
5.01980289208e-05
-0.000570237714497
5.03164786102e-05
-0.000585833692325
5.04891248831e-05
-0.000601490622698
5.07213990914e-05
-0.000617227860866
5.10174268988e-05
-0.000633065875629
5.13811340607e-05
-0.000649025950749
5.18154083872e-05
-0.000665130857664
5.23254811965e-05
-0.000681405606325
5.29193556017e-05
-0.000697877001606
5.36032365328e-05
-0.000714573127888
5.43819394244e-05
-0.000731522999359
5.52588662646e-05
-0.000748757891183
5.62425625771e-05
-0.000766311492702
5.73419553393e-05
-0.000784219463258
5.85645050607e-05
-0.000802518002774
5.99135786578e-05
-0.000821242780288
6.13876192691e-05
-0.000840432919697
6.30016819575e-05
-0.000860125575002
6.4749838715e-05
-0.000880358492873
6.66368934175e-05
-0.000901168064354
6.86616516628e-05
-0.000922584602298
7.0804449114e-05
-0.000944638506311
7.30722296233e-05
-0.00096734931448
7.54296590945e-05
-0.000990729775371
7.78590333712e-05
-0.00101478220166
8.03307063139e-05
-0.00103949156705
8.27876194605e-05
-0.00106483416162
8.52111095378e-05
-0.00109075886932
8.75071129878e-05
-0.00111719765145
8.96292610467e-05
-0.00114405339206
9.14792843028e-05
-0.00117120176549
9.29726397159e-05
-0.00119848496741
9.39966496802e-05
-0.00122571193018
9.44425741138e-05
-0.00125265538881
9.41877319192e-05
-0.00127905032715
9.31036596081e-05
-0.00130459353778
9.10576169209e-05
-0.00132894441648
8.79179572505e-05
-0.00135172659576
8.35556339431e-05
-0.0013725308746
7.78487907494e-05
-0.00139091785752
7.06789286996e-05
-0.00140642474892
6.19455027866e-05
-0.00141858283585
5.16045575207e-05
-0.00142686077556
3.95801861718e-05
-0.00143080022547
2.58241574375e-05
-0.00142999241406
1.05543141463e-05
-0.00142393537111
-6.36276756383e-06
-0.00141215197195
-2.49654796179e-05
-0.00139426953994
-4.50339033585e-05
-0.0013699350256
-6.63975551928e-05
-0.00133885515991
-8.88888228225e-05
-0.00130079655743
-0.000112317904026
-0.00125558864605
-0.000136468277398
-0.00120314050864
-0.000161070630166
-0.00114343004557
-0.000185889161066
-0.00107651505643
-0.000210638420422
-0.00100253298853
-0.000235039651167
-0.00092168817539
-0.000258843037979
-0.000834270680319
-0.000281748410804
-0.000740627780196
-0.000303537310876
-0.000641174405938
-0.000323953953072
-0.000536383347866
-0.000342793315005
-0.000426767443211
-0.000359881148573
-0.000312889529589
-0.00037504409045
-0.000195337790556
-0.000388173198902
-7.47230085102e-05
-0.000399179940118
4.83327947237e-05
-0.000408005160923
0.000173205714274
-0.000414639216165
0.000299277077322
-0.000419095651362
0.000425945432558
-0.000421430481469
0.000552631605897
-0.000421717466269
0.000678790712995
-0.00042007828451
0.000803913588826
-0.000416639649404
0.00092753939503
-0.000411572246101
0.00104925317659
-0.000405046835858
0.00116869862637
-0.000397261277721
0.0012855723525
-0.000388430918843
0.00139963548686
-0.00037874249468
0.00151070721592
-0.000368482631422
0.00161867183845
-0.000357751413567
0.00172347698646
-0.000346995934726
0.00182513076855
-0.000336066969962
0.00192371018428
-0.000325802389986
0.00201934987233
-0.000315442685595
0.00211224493505
-0.000306755235016
0.00220268807763
-0.000297580724515
0.00229092922673
-0.000291792914895
0.00237758152723
-0.000284210023772
0.00246267209922
-0.000283121737336
0.0025478326491
-0.000277651527439
0.00263196566694
-0.000282860603667
0.00271957958253
-0.000288365759389
-0.000362605233108
-5.2107653792e-07
-2.18856855122e-06
-6.45431457006e-06
1.83405879636e-05
-1.80906531199e-05
4.06728616427e-05
-3.40952803355e-05
5.76116298248e-05
-5.29085435464e-05
6.82042719271e-05
-7.32629891493e-05
7.38436035766e-05
-9.4328901602e-05
7.63273295938e-05
-0.000115631392365
7.70874583124e-05
-0.000136942943941
7.70734845274e-05
-0.000158172262935
7.67901650764e-05
-0.000179293870343
7.646328219e-05
-0.000200304557031
7.61557939606e-05
-0.000221204696322
7.58648911591e-05
-0.00024199139306
7.55676759471e-05
-0.000262658371018
7.52453487456e-05
-0.000283197541928
7.48881129536e-05
-0.000303600849517
7.4494890225e-05
-0.000323861459094
7.40700626327e-05
-0.00034397443722
7.36209424471e-05
-0.000363936949411
7.31558066214e-05
-0.000383748264911
7.26829207313e-05
-0.000403409591817
7.22099933069e-05
-0.000422923926918
7.17440733172e-05
-0.000442295853159
7.12915040737e-05
-0.000461531415246
7.08580659668e-05
-0.000480637961292
7.04490083811e-05
-0.0004996240718