/*--------------------------------*- C++ -*----------------------------------*\
| =========                 |                                                 |
| \\      /  F ield         | OpenFOAM: The Open Source CFD Toolbox           |
|  \\    /   O peration     | Version:  v1906                                 |
|   \\  /    A nd           | Web:      www.OpenFOAM.com                      |
|    \\/     M anipulation  |                                                 |
\*---------------------------------------------------------------------------*/
FoamFile
{
    version     2.0;
    format      ascii;
    class       volVectorField;
    location    "0";
    object      U;
}
// * * * * * * * * * * * * * * * * * * * * * * * * * * * * * * * * * * * * * //

dimensions      [0 1 -1 0 0 0 0];


internalField   nonuniform List<vector> 
18432
(
(2.01085988037e-05 -2.25071363825e-06 0)
(3.0940579272e-05 3.74484778188e-07 0)
(-1.51154734029e-05 1.64567048585e-06 0)
(-0.000101192023537 2.7013875561e-06 0)
(-0.000214752730374 3.16746608385e-06 0)
(-0.000341072247348 3.41169836387e-06 0)
(-0.000473235699123 3.46389690564e-06 0)
(-0.000606653555692 3.46652242212e-06 0)
(-0.000739934391287 3.44479700698e-06 0)
(-0.000872586275144 3.43115207633e-06 0)
(-0.00100479423106 3.42547398922e-06 0)
(-0.00113675507458 3.42793245276e-06 0)
(-0.00126863146296 3.43372865433e-06 0)
(-0.00140046632757 3.43990888403e-06 0)
(-0.00153222942146 3.44430635397e-06 0)
(-0.00166384290959 3.44598482511e-06 0)
(-0.00179521440641 3.44479988128e-06 0)
(-0.00192625435611 3.4409478759e-06 0)
(-0.00205688619388 3.43492889643e-06 0)
(-0.0021870502663 3.42718259795e-06 0)
(-0.00231670439441 3.41826700272e-06 0)
(-0.0024458231295 3.40856645132e-06 0)
(-0.00257439624704 3.3985733787e-06 0)
(-0.00270242740052 3.38858133253e-06 0)
(-0.00282993272805 3.37902308909e-06 0)
(-0.00295693985849 3.37011291787e-06 0)
(-0.00308348694382 3.36225126155e-06 0)
(-0.00320962211308 3.35560259512e-06 0)
(-0.00333540258966 3.35054500037e-06 0)
(-0.00346089479866 3.34720929031e-06 0)
(-0.00358617296288 3.34593625844e-06 0)
(-0.0037113200864 3.34687942391e-06 0)
(-0.00383642807675 3.35039609841e-06 0)
(-0.00396159349146 3.35643403235e-06 0)
(-0.00408692399797 3.36566735585e-06 0)
(-0.00421253830853 3.3780450461e-06 0)
(-0.00433856486949 3.39418589038e-06 0)
(-0.00446513627887 3.41375610248e-06 0)
(-0.00459239751127 3.43780000859e-06 0)
(-0.00472051044515 3.46618987368e-06 0)
(-0.00484964636703 3.49967022617e-06 0)
(-0.00497998780723 3.53809457922e-06 0)
(-0.00511172314998 3.58208629756e-06 0)
(-0.00524506642361 3.63240560715e-06 0)
(-0.00538025316179 3.68959737421e-06 0)
(-0.00551753697086 3.75414241322e-06 0)
(-0.00565718006216 3.82618288028e-06 0)
(-0.00579945994768 3.9066041167e-06 0)
(-0.00594469338707 3.99669158332e-06 0)
(-0.0060932145894 4.09649557073e-06 0)
(-0.00624539981685 4.20810464483e-06 0)
(-0.00640159792471 4.32875781996e-06 0)
(-0.00656220636106 4.46385801713e-06 0)
(-0.00672766360928 4.61034813479e-06 0)
(-0.00689836574669 4.77029861236e-06 0)
(-0.00707480649695 4.94613125969e-06 0)
(-0.00725738791378 5.13229235875e-06 0)
(-0.00744655381179 5.33648956131e-06 0)
(-0.00764276123138 5.55191553442e-06 0)
(-0.00784632049744 5.77982427044e-06 0)
(-0.008057641411 6.02264018778e-06 0)
(-0.00827689137077 6.26810753569e-06 0)
(-0.00850428330436 6.52980399157e-06 0)
(-0.0087398633472 6.78637373843e-06 0)
(-0.00898347518953 7.0498177611e-06 0)
(-0.00923487390853 7.30213671269e-06 0)
(-0.00949350539804 7.54673239427e-06 0)
(-0.00975863590906 7.76918058539e-06 0)
(-0.0100291818824 7.96611348539e-06 0)
(-0.0103038008193 8.12554075785e-06 0)
(-0.0105807723352 8.23879873231e-06 0)
(-0.0108580187772 8.29372625207e-06 0)
(-0.0111330669563 8.27951848138e-06 0)
(-0.0114030490085 8.18344463207e-06 0)
(-0.0116647026171 7.99400015265e-06 0)
(-0.0119143616117 7.6973912512e-06 0)
(-0.0121479281212 7.27973716194e-06 0)
(-0.0123609249142 6.72917433261e-06 0)
(-0.0125487939346 6.04780820807e-06 0)
(-0.0127071956725 5.24827121514e-06 0)
(-0.0128311522212 4.32355450526e-06 0)
(-0.0129148524912 3.13199474661e-06 0)
(-0.0129541848884 1.87442455102e-06 0)
(-0.0129437940408 4.79790856592e-07 0)
(-0.0128792956664 -1.07885228694e-06 0)
(-0.012756433422 -2.75863414245e-06 0)
(-0.0125715538922 -4.55531220037e-06 0)
(-0.0123214006401 -6.45037247207e-06 0)
(-0.0120035070868 -8.41987841878e-06 0)
(-0.0116160884639 -1.04494931219e-05 0)
(-0.0111580533075 -1.25089588672e-05 0)
(-0.0106293093649 -1.45745389345e-05 0)
(-0.010030457724 -1.6623058248e-05 0)
(-0.00936303193955 -1.86219578992e-05 0)
(-0.0086294271266 -2.05538880421e-05 0)
(-0.00783272681095 -2.23842885761e-05 0)
(-0.00697695532547 -2.40992528615e-05 0)
(-0.00606662189417 -2.5670163851e-05 0)
(-0.00510699012766 -2.70841939875e-05 0)
(-0.00410375835831 -2.83221541737e-05 0)
(-0.00306300777228 -2.93721422711e-05 0)
(-0.00199112083275 -3.02360718933e-05 0)
(-0.000894601951774 -3.09250906648e-05 0)
(0.000219912342578 -3.1374026601e-05 0)
(0.00134589564817 -3.16474742118e-05 0)
(0.00247703427425 -3.17325499697e-05 0)
(0.00360726029453 -3.16418484286e-05 0)
(0.00473095884677 -3.13870739566e-05 0)
(0.00584281043528 -3.09787481123e-05 0)
(0.00693834977876 -3.04498666756e-05 0)
(0.00801311796276 -2.97841385885e-05 0)
(0.00906430579833 -2.9070273353e-05 0)
(0.0100880459486 -2.8204282606e-05 0)
(0.0110840321998 -2.74247775967e-05 0)
(0.0120479209295 -2.63853093625e-05 0)
(0.0129837947748 -2.57178721103e-05 0)
(0.0138838905045 -2.44426637222e-05 0)
(0.0147613978759 -2.42047647625e-05 0)
(0.0155974961706 -2.24043278106e-05 0)
(0.0164267069381 -2.3270433579e-05 0)
(0.0171993042126 -2.00770372945e-05 0)
(0.0180034013637 -2.36527123017e-05 0)
(0.0187056869276 -1.66954257401e-05 0)
(0.0195352646359 -2.70708783612e-05 0)
(0.0201293328072 -9.86392434712e-06 0)
(0.02110881085 -3.79875963555e-05 0)
(0.0213715513346 1.21813615813e-05 0)
(0.0232726515263 -0.00011086795366 0)
(4.62147220369e-05 -9.55332892519e-06 0)
(6.0458099803e-05 7.14739901238e-06 0)
(-8.16451427208e-05 2.39933920104e-05 0)
(-0.000337937733377 3.65716587786e-05 0)
(-0.000673484212256 4.36292098468e-05 0)
(-0.00104780021647 4.71158375723e-05 0)
(-0.0014404542684 4.83681043403e-05 0)
(-0.00183796064176 4.86121602107e-05 0)
(-0.00223565383709 4.84721385356e-05 0)
(-0.00263173599353 4.82874739073e-05 0)
(-0.00302642600745 4.81594115457e-05 0)
(-0.00342013891003 4.80967307339e-05 0)
(-0.00381326072416 4.80680952226e-05 0)
(-0.00420589141295 4.80415093537e-05 0)
(-0.00459794300014 4.79949059051e-05 0)
(-0.00498920297498 4.79175525175e-05 0)
(-0.00537941989143 4.78074276921e-05 0)
(-0.00576835098323 4.76673849987e-05 0)
(-0.00615579008508 4.75029326217e-05 0)
(-0.00654157894477 4.73202067264e-05 0)
(-0.00692560892318 4.71254964682e-05 0)
(-0.00730781912413 4.69244836148e-05 0)
(-0.00768819207283 4.67225499807e-05 0)
(-0.00806674997311 4.65243523087e-05 0)
(-0.00844355061768 4.63343650816e-05 0)
(-0.00881868466096 4.61564285086e-05 0)
(-0.00919227270681 4.59944092864e-05 0)
(-0.0095644637649 4.58516060704e-05 0)
(-0.00993543269175 4.57314817398e-05 0)
(-0.0103053804493 4.56369885617e-05 0)
(-0.0106745303158 4.55712077571e-05 0)
(-0.0110431304302 4.55372448013e-05 0)
(-0.0114114536794 4.55378398323e-05 0)
(-0.0117797873375 4.5575235208e-05 0)
(-0.0121484494313 4.56542629978e-05 0)
(-0.0125177890916 4.57777838415e-05 0)
(-0.0128881824847 4.59494374745e-05 0)
(-0.0132600192039 4.61707035619e-05 0)
(-0.0136337233748 4.64484989731e-05 0)
(-0.0140097656164 4.67862185974e-05 0)
(-0.0143886438348 4.71886985681e-05 0)
(-0.0147708874177 4.76582642088e-05 0)
(-0.0151570446121 4.82006675064e-05 0)
(-0.0155477332487 4.88249978043e-05 0)
(-0.0159436309166 4.95376753531e-05 0)
(-0.0163454653053 5.03444206288e-05 0)
(-0.0167539894651 5.12483879143e-05 0)
(-0.0171699998227 5.2259994275e-05 0)
(-0.017594396692 5.33902512615e-05 0)
(-0.0180281307993 5.46471194944e-05 0)
(-0.018472259416 5.60391212564e-05 0)
(-0.0189277720531 5.75599150267e-05 0)
(-0.0193957812046 5.9237803831e-05 0)
(-0.0198774999646 6.10626344358e-05 0)
(-0.0203740329929 6.30466958119e-05 0)
(-0.0208867189661 6.51986363347e-05 0)
(-0.0214166545847 6.74917333326e-05 0)
(-0.0219650241203 6.9957372302e-05 0)
(-0.0225330179764 7.25535989326e-05 0)
(-0.023121427536 7.5276234709e-05 0)
(-0.0237312494461 7.81126285699e-05 0)
(-0.0243628273242 8.09932630953e-05 0)
(-0.0250165570993 8.39447231431e-05 0)
(-0.0256923528159 8.68440663991e-05 0)
(-0.0263895342542 8.96909248364e-05 0)
(-0.0271071145445 9.23685507328e-05 0)
(-0.0278432284511 9.48223298616e-05 0)
(-0.0285954517756 9.69307975934e-05 0)
(-0.0293603668187 9.86008242063e-05 0)
(-0.0301337856744 9.97059658897e-05 0)
(-0.0309104498844 0.000100119713175 0)
(-0.0316840812094 9.9701581057e-05 0)
(-0.03244729065 9.83120337356e-05 0)
(-0.0331915886542 9.58058445027e-05 0)
(-0.0339073987948 9.20422368436e-05 0)
(-0.0345840481919 8.68700263299e-05 0)
(-0.0352097309526 8.01458228451e-05 0)
(-0.035771696034 7.17757552957e-05 0)
(-0.0362570121495 6.17807222995e-05 0)
(-0.0366531498262 5.01477309134e-05 0)
(-0.0369455496737 3.66152898836e-05 0)
(-0.0371186272462 2.10023143209e-05 0)
(-0.0371622083171 4.02599906788e-06 0)
(-0.0370599575099 -1.48155347524e-05 0)
(-0.0368004046403 -3.52512212488e-05 0)
(-0.0363721348354 -5.70796853314e-05 0)
(-0.0357654623657 -8.0153037341e-05 0)
(-0.0349719016683 -0.000104249814239 0)
(-0.0339851689836 -0.000129094098869 0)
(-0.0328009637166 -0.000154455693503 0)
(-0.0314169155507 -0.000180011954796 0)
(-0.0298334265124 -0.000205464638262 0)
(-0.0280528290864 -0.000230525914113 0)
(-0.0260799843387 -0.000254856358714 0)
(-0.023922157928 -0.000278202119217 0)
(-0.0215883986543 -0.000300239765237 0)
(-0.0190903681616 -0.000320744782132 0)
(-0.0164409526069 -0.000339467241137 0)
(-0.0136550848576 -0.000356214296855 0)
(-0.0107488444552 -0.00037081959857 0)
(-0.00773928463501 -0.000383180422389 0)
(-0.00464424816595 -0.000393286266384 0)
(-0.0014817119607 -0.000400884353835 0)
(0.00172948028447 -0.000406181359973 0)
(0.00497156230854 -0.000409162765797 0)
(0.00822691947261 -0.000409902088943 0)
(0.0114787355623 -0.000408537060073 0)
(0.0147114294635 -0.000405206007416 0)
(0.0179102834122 -0.000400088514499 0)
(0.0210628414292 -0.000393412785262 0)
(0.0241568090088 -0.000385324372434 0)
(0.0271841764462 -0.000376218178515 0)
(0.0301344259652 -0.000366030758862 0)
(0.0330061758016 -0.000355561311144 0)
(0.0357879864853 -0.000344113991172 0)
(0.0384899378671 -0.00033352928776 0)
(0.0410921610218 -0.000321435156232 0)
(0.0436282954612 -0.000312343189624 0)
(0.0460504617463 -0.0002996130084 0)
(0.0484472651473 -0.000294524197421 0)
(0.0506917970513 -0.00027969640124 0)
(0.0530106679511 -0.000283465927106 0)
(0.0550622821792 -0.000261456532834 0)
(0.0574364564556 -0.000284960266062 0)
(0.0592016166158 -0.000241559140466 0)
(0.0619563182435 -0.000305327429659 0)
(0.0629329050913 -0.000224663620114 0)
(0.0677827777745 -0.000606284164011 0)
(6.17133758274e-05 -2.05214511267e-05 0)
(6.15930984805e-05 2.34809625175e-05 0)
(-0.000182988004976 7.06405793553e-05 0)
(-0.000610573578473 0.000105810306514 0)
(-0.00116642039269 0.000126321629441 0)
(-0.00178730383519 0.00013661040474 0)
(-0.00243968830071 0.000140588179624 0)
(-0.00310141907777 0.000141507756743 0)
(-0.0037641616626 0.000141225213159 0)
(-0.00442451612593 0.000140704575948 0)
(-0.00508243730781 0.000140286957711 0)
(-0.00573839226948 0.000140019768913 0)
(-0.00639289406355 0.000139836129409 0)
(-0.00704606870992 0.000139654792141 0)
(-0.00769777076163 0.000139418689101 0)
(-0.00834767109284 0.000139099246712 0)
(-0.00899538298543 0.000138691238504 0)
(-0.00964053509574 0.000138202695421 0)
(-0.0102828146844 0.000137648965014 0)
(-0.0109219855179 0.0001370472451 0)
(-0.0115578907385 0.000136415155015 0)
(-0.0121904499212 0.000135768694826 0)
(-0.0128196522799 0.000135122968538 0)
(-0.0134455506027 0.000134491108541 0)
(-0.0140682547418 0.000133885651581 0)
(-0.0146879271224 0.000133317440366 0)
(-0.0153047781132 0.000132797266907 0)
(-0.0159190633972 0.000132334434427 0)
(-0.0165310800262 0.000131938592296 0)
(-0.0171411665106 0.00013161804009 0)
(-0.0177496971673 0.00013138144743 0)
(-0.0183570858378 0.000131237405047 0)
(-0.0189637854311 0.00013119353149 0)
(-0.0195702726736 0.000131256579702 0)
(-0.0201770725669 0.000131439319402 0)
(-0.020784759469 0.00013175030948 0)
(-0.0213939503643 0.000132199024352 0)
(-0.0220052848798 0.000132790943487 0)
(-0.0226194570319 0.000133543835275 0)
(-0.0232372335076 0.000134468145837 0)
(-0.0238594251636 0.000135576597053 0)
(-0.0244868921963 0.000136876480259 0)
(-0.0251205266502 0.000138383841994 0)
(-0.0257613280501 0.000140122855053 0)
(-0.026410389901 0.000142111906768 0)
(-0.0270688837018 0.00014436601705 0)
(-0.0277380213951 0.000146895298069 0)
(-0.028419082961 0.000149727165679 0)
(-0.0291135055035 0.000152890967477 0)
(-0.0298228058506 0.000156409460076 0)
(-0.0305486559354 0.000160301099523 0)
(-0.0312926268296 0.000164556143128 0)
(-0.0320564683928 0.000169238780719 0)
(-0.0328420710488 0.000174328520285 0)
(-0.0336511588249 0.000179853197059 0)
(-0.0344857821944 0.000185826580563 0)
(-0.0353476171292 0.000192187545857 0)
(-0.0362384412203 0.000198995680859 0)
(-0.0371600023572 0.00020614720409 0)
(-0.038113419468 0.000213617515735 0)
(-0.0391000542952 0.000221353517106 0)
(-0.0401202490657 0.000229183798164 0)
(-0.0411743413236 0.000237127749741 0)
(-0.0422618808425 0.000244885956215 0)
(-0.0433814362912 0.000252400731996 0)
(-0.0445310222438 0.000259375737721 0)
(-0.0457072376453 0.000265621360273 0)
(-0.0469057331038 0.000270812405144 0)
(-0.0481205652492 0.00027466818274 0)
(-0.0493445217736 0.000276839415464 0)
(-0.0505686815391 0.000276965893014 0)
(-0.0517824936852 0.000274658991575 0)
(-0.0529736533844 0.000269529959416 0)
(-0.0541281312105 0.00026118223385 0)
(-0.0552302134332 0.000249231014973 0)
(-0.0562625143703 0.000233274430123 0)
(-0.057205971949 0.000212940518494 0)
(-0.0580401773878 0.000188002022397 0)
(-0.0587445270034 0.000158524345086 0)
(-0.0592988167043 0.000124321516631 0)
(-0.0596785691072 8.45848748541e-05 0)
(-0.0598622349504 4.02047410563e-05 0)
(-0.0598334730253 -8.78930930762e-06 0)
(-0.0595653259243 -6.27304143072e-05 0)
(-0.0590412373165 -0.000120866907895 0)
(-0.0582437592012 -0.000182739270078 0)
(-0.057158418814 -0.000247887281713 0)
(-0.0557727378433 -0.000315690541934 0)
(-0.0540777004387 -0.000385384571496 0)
(-0.0520675307136 -0.000456306442587 0)
(-0.0497394500689 -0.000527582669351 0)
(-0.0470950376782 -0.000598386999527 0)
(-0.0441388745395 -0.000667930955974 0)
(-0.0408794102926 -0.000735299151148 0)
(-0.0373288994324 -0.000799793035542 0)
(-0.0335021498483 -0.000860564105122 0)
(-0.0294181171148 -0.000916984272127 0)
(-0.025097440965 -0.00096842189987 0)
(-0.0205639390445 -0.00101433393178 0)
(-0.0158431250154 -0.00105431117004 0)
(-0.0109619066897 -0.00108818078245 0)
(-0.00594785483675 -0.00111536985909 0)
(-0.000830631601123 -0.00113620900335 0)
(0.00436176372877 -0.00115045422163 0)
(0.00960093336886 -0.00115836628745 0)
(0.0148594174181 -0.00116011842043 0)
(0.0201109540418 -0.00115608518275 0)
(0.0253311912566 -0.00114664755304 0)
(0.0304971626263 -0.00113231185007 0)
(0.0355893306831 -0.00111365192303 0)
(0.0405885308729 -0.00109116955526 0)
(0.045482025941 -0.00106573735354 0)
(0.0502535194048 -0.00103755056273 0)
(0.0549003455116 -0.00100814916169 0)
(0.059405077007 -0.000976718331773 0)
(0.0637823615684 -0.00094648516534 0)
(0.0680024346612 -0.000913925640521 0)
(0.0721154003683 -0.00088657173719 0)
(0.076049811072 -0.000854031211147 0)
(0.0799384020034 -0.000834671299812 0)
(0.0835913815361 -0.000801005413998 0)
(0.087349035141 -0.000798383428837 0)
(0.0906990902046 -0.000757080411885 0)
(0.0945283374531 -0.000788998358743 0)
(0.0974382446248 -0.000721201561718 0)
(0.101831101374 -0.000815489308394 0)
(0.10362623607 -0.000730889946501 0)
(0.110823051422 -0.0013896372199 0)
(6.92718087103e-05 -3.2224010005e-05 0)
(3.79439522729e-05 5.22038610503e-05 0)
(-0.000316784403259 0.00014460723265 0)
(-0.000917949819808 0.000213742412228 0)
(-0.0016934514074 0.00025500827361 0)
(-0.00256000137699 0.000276007603981 0)
(-0.00347156218789 0.000284484856024 0)
(-0.0043976065527 0.00028664437859 0)
(-0.00532586309086 0.000286241589288 0)
(-0.00625108607706 0.000285207192413 0)
(-0.00717270792749 0.000284286051401 0)
(-0.00809109253016 0.000283609824612 0)
(-0.00900678777166 0.000283077253298 0)
(-0.00991991320083 0.000282543043825 0)
(-0.0108302646812 0.000281902618693 0)
(-0.0117374135599 0.000281102834901 0)
(-0.0126408617208 0.000280134289711 0)
(-0.0135401346722 0.000279013106553 0)
(-0.0144348373023 0.000277769268126 0)
(-0.0153246773241 0.000276436714915 0)
(-0.0162094691452 0.000275049908334 0)
(-0.0170891298526 0.000273640528311 0)
(-0.017963670215 0.000272238096187 0)
(-0.0188331863942 0.000270868679579 0)
(-0.0196978512589 0.000269556696151 0)
(-0.0205579081514 0.00026832372938 0)
(-0.0214136647373 0.00026719068928 0)
(-0.0222654892549 0.000266176131808 0)
(-0.0231138054176 0.000265298673352 0)
(-0.0239590921249 0.000264574888674 0)
(-0.0248018763065 0.000264021531333 0)
(-0.0256427376202 0.000263655630527 0)
(-0.0264823075585 0.000263491754323 0)
(-0.0273212499751 0.00026354391535 0)
(-0.0281602924612 0.000263836039551 0)
(-0.0290002284723 0.000264385777677 0)
(-0.0298419079055 0.000265210634673 0)
(-0.03068621162 0.000266323013737 0)
(-0.0315340923501 0.0002677557256 0)
(-0.0323865986469 0.000269530550229 0)
(-0.0332448386571 0.000271671162341 0)
(-0.0341099851022 0.000274193016594 0)
(-0.0349832541673 0.000277126907414 0)
(-0.035866001871 0.000280519268873 0)
(-0.0367597084337 0.000284405870575 0)
(-0.0376659556869 0.00028881548929 0)
(-0.0385863779368 0.000293768407863 0)
(-0.0395226974108 0.000299316627625 0)
(-0.0404768362437 0.00030551514465 0)
(-0.0414508207042 0.000312408668584 0)
(-0.042446867107 0.000320026873647 0)
(-0.0434670588375 0.000328357921913 0)
(-0.0445136977617 0.000337510690722 0)
(-0.0455892484458 0.000347451712663 0)
(-0.0466959514015 0.00035822631256 0)
(-0.0478364324787 0.000369849599416 0)
(-0.0490128167818 0.000382211882811 0)
(-0.0502273181349 0.000395399022923 0)
(-0.0514820604848 0.000409217097759 0)
(-0.0527783180427 0.000423601246786 0)
(-0.0541175962329 0.000438425534667 0)
(-0.0555000387179 0.000453371629091 0)
(-0.0569256813002 0.000468418128156 0)
(-0.0583934713614 0.000483016776011 0)
(-0.0599009905231 0.000496993587852 0)
(-0.0614450021616 0.000509791833066 0)
(-0.063020342617 0.000520999184424 0)
(-0.0646205121328 0.00052998834454 0)
(-0.0662368576038 0.000536186147084 0)
(-0.0678589819884 0.000538910052682 0)
(-0.0694741982976 0.000537447450083 0)
(-0.0710676400412 0.000531042202447 0)
(-0.0726221214733 0.000518937202734 0)
(-0.0741181971151 0.00050037024045 0)
(-0.0755342425688 0.000474604744124 0)
(-0.076846511328 0.000440887223155 0)
(-0.0780291975746 0.000398533978387 0)
(-0.0790548931638 0.000347160563174 0)
(-0.0798961187564 0.000286919491721 0)
(-0.0805255806405 0.000216852880293 0)
(-0.0809069397484 0.000136489176017 0)
(-0.0810231659028 4.80202566434e-05 0)
(-0.0808413771815 -5.04156077665e-05 0)
(-0.0803320633184 -0.000158124529328 0)
(-0.0794730275301 -0.00027364949967 0)
(-0.0782422459836 -0.000396225673391 0)
(-0.0766217162226 -0.000524890174306 0)
(-0.0745962018355 -0.000658425457345 0)
(-0.0721550287065 -0.000795335610783 0)
(-0.0692919817164 -0.00093430639432 0)
(-0.0660046998243 -0.00107366150745 0)
(-0.0622965991619 -0.00121179640998 0)
(-0.0581749782178 -0.0013472031932 0)
(-0.0536520751355 -0.00147812919599 0)
(-0.0487452309135 -0.00160323480603 0)
(-0.0434747139464 -0.00172094798511 0)
(-0.037866418218 -0.0018300295067 0)
(-0.0319480318217 -0.00192935523962 0)
(-0.0257514437769 -0.00201785236737 0)
(-0.019310632606 -0.00209490415391 0)
(-0.0126606073883 -0.0021596390468 0)
(-0.00583944800274 -0.00221206238045 0)
(0.0011157069597 -0.00225173007341 0)
(0.00816723885792 -0.00227882017682 0)
(0.0152779929182 -0.00229363748559 0)
(0.0224120106642 -0.00229656420904 0)
(0.029534909539 -0.00228831509493 0)
(0.0366147851663 -0.00226962659707 0)
(0.0436215786253 -0.00224148583296 0)
(0.0505296188477 -0.00220494868329 0)
(0.0573138171512 -0.00216107636426 0)
(0.0639572634485 -0.0021113497082 0)
(0.0704386654364 -0.00205649227279 0)
(0.0767540572976 -0.00199885225663 0)
(0.0828808633547 -0.00193789656331 0)
(0.0888373429808 -0.00187811341671 0)
(0.094585322537 -0.00181554887574 0)
(0.100188571359 -0.00176010887381 0)
(0.105555692138 -0.0016992208946 0)
(0.110856594279 -0.0016562966287 0)
(0.11584811757 -0.00159762813502 0)
(0.120967038851 -0.00157970977131 0)
(0.125555748192 -0.0015178218604 0)
(0.130753929025 -0.00154778408522 0)
(0.134765999146 -0.00146549293385 0)
(0.14067398104 -0.00157283506242 0)
(0.143323484644 -0.00152263692385 0)
(0.152443924591 -0.00240729641856 0)
(7.08791290709e-05 -4.13668000919e-05 0)
(-7.37181176537e-06 9.59906790026e-05 0)
(-0.000480786980922 0.00024750406945 0)
(-0.00125888465463 0.000361374968506 0)
(-0.00225433584073 0.000430506219003 0)
(-0.00336615197851 0.00046617994356 0)
(-0.00453652292223 0.000481045057804 0)
(-0.00572691084478 0.000485106777256 0)
(-0.00692095076588 0.000484649348569 0)
(-0.00811136137064 0.00048291559608 0)
(-0.0092968332135 0.000481229382308 0)
(-0.0104774856866 0.000479868083605 0)
(-0.0116538152239 0.000478709184662 0)
(-0.0128259026237 0.00047753699631 0)
(-0.0139934834239 0.000476191682824 0)
(-0.015156046273 0.000474591160124 0)
(-0.0163130059976 0.000472721790602 0)
(-0.0174638113974 0.000470610779914 0)
(-0.0186080104728 0.000468307353503 0)
(-0.0197452781742 0.000465867463674 0)
(-0.0208754209157 0.000463347597109 0)
(-0.0219983714549 0.000460800044577 0)
(-0.0231141778818 0.000458273161297 0)
(-0.0242229932371 0.000455810022371 0)
(-0.0253250648555 0.000453450518862 0)
(-0.026420726471 0.000451230350555 0)
(-0.027510390711 0.000449183549682 0)
(-0.0285945442394 0.000447340828262 0)
(-0.0296737416878 0.000445732387843 0)
(-0.0307486048839 0.000444385660639 0)
(-0.0318198143995 0.000443327852326 0)
(-0.0328881152214 0.00044258702773 0)
(-0.0339543153089 0.00044218666615 0)
(-0.0350192621278 0.000442150407903 0)
(-0.0360838802534 0.00044251636331 0)
(-0.0371491749442 0.000443314258523 0)
(-0.038216219824 0.000444571698481 0)
(-0.0392861261594 0.000446310495062 0)
(-0.0403600920394 0.000448582382857 0)
(-0.0414394317689 0.00045142424759 0)
(-0.0425255328171 0.000454873562475 0)
(-0.0436198595355 0.000458956588882 0)
(-0.044723928739 0.0004637228497 0)
(-0.04583942415 0.000469247248088 0)
(-0.0469681799137 0.000475587808296 0)
(-0.0481121509788 0.00048279063934 0)
(-0.049273352447 0.000490888771473 0)
(-0.0504539011582 0.000499964807211 0)
(-0.051656146728 0.00051010546375 0)
(-0.0528825615376 0.000521382745343 0)
(-0.0541358309775 0.000533837597447 0)
(-0.0554184713988 0.000547455640183 0)
(-0.0567332430407 0.000562396306836 0)
(-0.0580830744064 0.000578608356885 0)
(-0.0594706064944 0.000596153533362 0)
(-0.0608988992071 0.000615041478255 0)
(-0.0623703829128 0.000635097428696 0)
(-0.0638875406458 0.0006564265102 0)
(-0.0654526848473 0.000678714216901 0)
(-0.0670670565224 0.000701831244361 0)
(-0.0687320828158 0.000725543388803 0)
(-0.0704474961977 0.000749337261705 0)
(-0.0722127860728 0.000773112661977 0)
(-0.0740260567947 0.000795999538862 0)
(-0.0758836630055 0.000817646041211 0)
(-0.0777808719245 0.000837154218261 0)
(-0.079710535129 0.000853802272119 0)
(-0.0816637927729 0.00086656538408 0)
(-0.0836291140766 0.000874477612743 0)
(-0.0855927834729 0.000876419285513 0)
(-0.0875382760377 0.00087121642841 0)
(-0.0894464055056 0.000857637998599 0)
(-0.0912951854826 0.000834454171594 0)
(-0.0930599302838 0.000800440190991 0)
(-0.0947133902065 0.000754421063597 0)
(-0.0962258739834 0.000695217292371 0)
(-0.0975654075816 0.000621782045885 0)
(-0.0986982947982 0.00053360532986 0)
(-0.0995911729929 0.000430785825893 0)
(-0.100208318721 0.000310747351921 0)
(-0.100506865123 0.000177019624316 0)
(-0.100473798658 2.74812498338e-05 0)
(-0.100057593922 -0.000137125297451 0)
(-0.0992312444856 -0.000316531692667 0)
(-0.0979670026989 -0.000508351435915 0)
(-0.0962396018567 -0.000711268743682 0)
(-0.0940287696444 -0.00092363485273 0)
(-0.091317718774 -0.00114345425522 0)
(-0.088095142712 -0.00136826825363 0)
(-0.0843553925936 -0.00159591829229 0)
(-0.0800972746348 -0.00182370593252 0)
(-0.0753266542831 -0.0020490232419 0)
(-0.07005395088 -0.00226947503866 0)
(-0.0642953001121 -0.00248225631702 0)
(-0.0580732154323 -0.00268519869833 0)
(-0.0514130102437 -0.00287589228196 0)
(-0.0443471642598 -0.00305228854511 0)
(-0.0369096280957 -0.00321268038532 0)
(-0.0291395499339 -0.00335536005848 0)
(-0.0210779062843 -0.00347917882308 0)
(-0.012768394958 -0.00358349373435 0)
(-0.00425554176817 -0.00366734740395 0)
(0.00441534813904 -0.00373074220505 0)
(0.0131990101799 -0.00377378418192 0)
(0.0220508951241 -0.00379696633794 0)
(0.0309278969937 -0.0038009469363 0)
(0.0397888257457 -0.00378687174137 0)
(0.0485954377966 -0.003755930358 0)
(0.0573117246288 -0.00370972254852 0)
(0.0659068429416 -0.00364990177048 0)
(0.0743507022937 -0.00357826188167 0)
(0.0826228283611 -0.00349700055231 0)
(0.0906976517007 -0.00340760222292 0)
(0.0985700334511 -0.00331327413132 0)
(0.106212903506 -0.00321411885627 0)
(0.113647530609 -0.00311575903186 0)
(0.120828312303 -0.00301446591601 0)
(0.127830756031 -0.00292190720217 0)
(0.134545808344 -0.0028247846516 0)
(0.1411757688 -0.00274962962726 0)
(0.147430227862 -0.00266014564947 0)
(0.153830730022 -0.00261844699879 0)
(0.159591016925 -0.00253450847401 0)
(0.166073403545 -0.00255250160469 0)
(0.171132841466 -0.0024641040865 0)
(0.178441965808 -0.00257012681455 0)
(0.181934184614 -0.00257347877393 0)
(0.192688837644 -0.00362258076781 0)
(6.79716263387e-05 -4.51797058003e-05 0)
(-7.16450996863e-05 0.000157681891269 0)
(-0.000672855001372 0.000381563479801 0)
(-0.00163215852357 0.000550505965083 0)
(-0.00284869478397 0.000654460943088 0)
(-0.00420584039489 0.000708814560774 0)
(-0.00563481907234 0.000732041070167 0)
(-0.00708950194973 0.00073873760509 0)
(-0.00854937137742 0.000738312923096 0)
(-0.0100049746352 0.000735670369564 0)
(-0.0114540796747 0.000732897378063 0)
(-0.0128964364789 0.000730492548628 0)
(-0.0143324115295 0.000728336002901 0)
(-0.015762016612 0.000726143225517 0)
(-0.017184926018 0.000723695965141 0)
(-0.0186005630053 0.000720881271329 0)
(-0.0200082805789 0.000717682212272 0)
(-0.0214074785039 0.000714140301205 0)
(-0.0227976747829 0.000710328472647 0)
(-0.0241785363015 0.000706329657806 0)
(-0.0255498835013 0.000702227213637 0)
(-0.0269116840628 0.00069809862185 0)
(-0.0282640400355 0.000694015167836 0)
(-0.0296071754975 0.000690040687442 0)
(-0.0309414241344 0.000686233855446 0)
(-0.0322672197813 0.000682647571994 0)
(-0.0335850877303 0.000679331741006 0)
(-0.0348956388075 0.000676331861679 0)
(-0.0361995625036 0.000673692103512 0)
(-0.0374976256545 0.000671453071058 0)
(-0.0387906628163 0.000669654575971 0)
(-0.0400795830466 0.000668338065088 0)
(-0.041365367806 0.000667537661236 0)
(-0.0426490432955 0.000667288668701 0)
(-0.0439317240275 0.000667646184704 0)
(-0.0452146183588 0.000668654687324 0)
(-0.0464990129343 0.000670353695792 0)
(-0.0477862363545 0.000672776468814 0)
(-0.0490777162267 0.000675997236475 0)
(-0.050375014215 0.000680071350596 0)
(-0.0516797765478 0.00068505259564 0)
(-0.052993735333 0.000690980089347 0)
(-0.0543186803725 0.000697925419401 0)
(-0.0556565902259 0.00070599742278 0)
(-0.057009616105 0.000715280612093 0)
(-0.0583800446141 0.00072584115986 0)
(-0.0597702246454 0.000737726393326 0)
(-0.0611826133268 0.000751054068348 0)
(-0.062619923765 0.000765947395034 0)
(-0.0640850040531 0.000782509338043 0)
(-0.0655809275004 0.00080079067651 0)
(-0.0671105540474 0.000820771687594 0)
(-0.0686770000607 0.000842665941176 0)
(-0.0702835400624 0.000866396656185 0)
(-0.0719330869147 0.000892038030064 0)
(-0.0736289874481 0.000919584601432 0)
(-0.0753738209165 0.000948776224086 0)
(-0.0771701631113 0.000979726611774 0)
(-0.0790203215503 0.00101196637844 0)
(-0.0809253018741 0.00104527364269 0)
(-0.0828862309898 0.00107926744714 0)
(-0.0849022063851 0.00111318625061 0)
(-0.0869719269438 0.00114681095442 0)
(-0.0890924151647 0.00117887317905 0)
(-0.0912585601318 0.00120878087016 0)
(-0.0934639006823 0.00123521243255 0)
(-0.0956990932385 0.00125705148212 0)
(-0.0979527305507 0.00127278242201 0)
(-0.100210261325 0.00128095117378 0)
(-0.1024545527 0.001279903549 0)
(-0.104665210356 0.00126790503734 0)
(-0.106818772611 0.00124315436752 0)
(-0.108888587656 0.0012038595307 0)
(-0.110844966319 0.00114825390544 0)
(-0.112655384449 0.00107465858629 0)
(-0.114284688447 0.000981420645392 0)
(-0.115695371163 0.000867118792727 0)
(-0.116848254854 0.000731187950916 0)
(-0.117705493672 0.000572640782989 0)
(-0.118217402601 0.000389804595535 0)
(-0.118355333763 0.000187818734961 0)
(-0.118083936528 -3.7893952304e-05 0)
(-0.117353751969 -0.000286047317183 0)
(-0.116135003078 -0.000554611456391 0)
(-0.114396559065 -0.000840974293876 0)
(-0.112111081002 -0.00114298199775 0)
(-0.109257271621 -0.00145811932179 0)
(-0.105817949074 -0.00178345321522 0)
(-0.101782115261 -0.00211534126259 0)
(-0.0971456419848 -0.00245060881561 0)
(-0.0919091462119 -0.00278535931666 0)
(-0.0860814882481 -0.00311578992533 0)
(-0.0796765392815 -0.00343846940613 0)
(-0.0727143133774 -0.0037494023879 0)
(-0.06522259371 -0.00404539423528 0)
(-0.0572311839924 -0.00432308336668 0)
(-0.0487788145836 -0.00457968658846 0)
(-0.0399048391758 -0.00481232094833 0)
(-0.030654869898 -0.00501909466314 0)
(-0.0210762136206 -0.00519833522763 0)
(-0.01121882784 -0.00534876991382 0)
(-0.00113379017247 -0.00546955319674 0)
(0.00912722750466 -0.00556055483327 0)
(0.0195126531054 -0.00562193597014 0)
(0.0299718830845 -0.0056544419173 0)
(0.0404559779355 -0.00565906322262 0)
(0.0509182144382 -0.00563745774325 0)
(0.061315192035 -0.00559135210265 0)